906
Properties=species:S:1:pos:R:3 i=14650050 time=7325024.998 E=-9637.5919146914 pbc="F F F"
Se      31.36349309      -9.02574543      11.17420526
Na      31.24652614      -9.58366821      10.30510116
H       30.63892768      -8.43942613      11.05530675
S       73.29165541       7.31482882      32.15071847
H       73.56297437       7.45141020      33.07863607
Li      74.05292461       6.77215691      31.72075875
O       19.21746396     -46.48232675      21.98011904
H       18.51344539     -45.81386417      21.76015589
H       19.96936623     -46.25981831      21.33432588
O       53.50362615       1.02005960      29.96154158
H       53.52396244       1.74940785      30.65153458
H       52.92447138       0.30183561      30.25022454
S       35.42779946     -47.78923212      33.66801893
H       35.78484887     -46.86823969      33.63484587
Li      36.08839744     -48.34526343      33.25652158
S       36.76777143       6.94780255      30.37696323
H       35.82011802       6.87782542      30.25619872
Li      37.11883366       6.22224683      31.04402456
O       -4.23389530     -42.81662963      24.05398713
H       -4.04196175     -42.18131879      23.34837872
H       -5.06994416     -42.48816348      24.50142903
O       44.92433182      31.41478575      13.09959110
H       44.40310934      31.91193674      12.39699633
H       54.25134889      17.19148372      13.21004305
S      -63.91452037     -45.75833348      33.27675577
Li     -63.80837566     -44.81415489      32.91366992
Li     -63.12659809     -46.31929765      33.02441280
O        7.05719185     -15.54195552      29.99427877
H        6.78429696     -14.71100655      29.50852916
H        6.30551563     -16.11424176      30.04284604
O       45.77567161      37.43376071      18.43277812
H       46.57353760      37.90585482      18.09697406
H       45.10821423      38.15685308      18.25788210
O       27.21409807     -85.77301623      31.67071776
H       26.59256717     -86.53833487      31.54859397
H       27.75037379     -85.52640240      30.90184714
S       -1.52927036     -11.96012219      32.34656187
Li      -1.30528615     -12.34343369      31.50628967
H       -1.28595210     -12.63527265      33.01682505
Se      35.98681431      18.89600072       9.15806220
Na      35.07104606      18.77053023       8.80185428
Na      36.24490727      19.91235670       9.32699631
S        3.97242524     -30.02249111      32.27369694
H        4.32376078     -29.13757848      32.28350327
Li       3.08864282     -29.82986184      32.77789368
O        0.49607677       7.61623487      27.07020743
H        0.23062373       8.29812283      26.36026917
H        1.14527773       7.04897420      26.61354973
O        6.14122555      18.04873431       8.75366935
H        5.45440459      18.58851982       9.24135992
H        5.82868233      17.80720693       7.78151976
Se       2.49381414     -18.43488598      10.06206559
Na       2.35328166     -18.12639882      10.98095327
H        1.58743221     -18.59616958       9.79292798
S      -12.86617651       2.19173060      32.45905316
Li     -11.88474305       2.27042892      32.31182077
H      -12.87360076       2.24855017      33.52277328
S       14.52306633      12.88528781      33.31775548
Li      13.51109985      13.17230656      32.95134540
H       15.07787160      13.70360186      33.28499591
O      -22.42591319      18.70358596       9.05772042
H      -23.30909188      18.30516091       9.10193941
H       -5.39404078      18.64646126       8.10223126
O      100.67594961     -37.07007299      20.93464413
H       99.91914378     -36.92423007      21.45477838
H      117.77995837     -36.10945044      20.76905713
O      -17.22399081      37.99849701      12.08361610
H      -25.95293860      52.70678977      11.16680482
H      -17.36507172      36.98179599      12.15592428
O       25.44883897     -19.71999222      20.49714204
H       25.66745430     -19.59765578      21.48707523
H       26.07129753     -19.40715104      19.82878073
O      -46.45904876     -55.22249492      15.11645696
H      -46.11869198     -55.42695582      14.20631014
H      -45.82627576     -55.76510054      15.67142874
O      -13.54412965     -15.74927562      16.01755624
H      -14.31297245     -15.33193048      15.60804969
H      -12.68477344     -15.49291545      15.57262971
O      -22.02250860     -58.65447623      11.74706846
H      -22.22632832     -57.78845136      12.16095696
H      -21.97373635     -58.41011658      10.76886306
Se      85.02106603     -42.75869445       8.72777417
H       85.10831252     -42.41233766       7.78294817
Na      85.98583431     -42.73427080       8.98285864
O        0.51377266      53.78556707      11.67366581
H        1.04671425      53.68867345      12.57428782
H        0.67884131      54.78848752      11.26566438
O       11.89491718     -52.63951033      19.55980692
H       -5.53496437     -52.52912309      20.36052387
H       12.15842665     -51.80559437      19.19869361
O      -28.31820733     -13.24395236      20.82130896
H      -28.49183474     -12.25967682      20.64416877
H      -28.69356495     -13.68950062      19.96419303
O       16.18627818      58.13902053      21.45861021
H       15.59277270      58.95886456      21.37857106
H       15.73962622      57.29545722      21.70963049
O      -19.79210886     -14.50580983      29.22040497
H      -19.67008835     -15.41128966      29.40732549
H      -20.71025055     -14.29389239      29.57387175
O       -9.87218176     -27.10145131      29.78972097
H      -10.25642870     -27.95370530      29.40976431
H       -9.02448787     -26.99983180      29.25645947
O       53.66721517       5.94694025      20.15459921
H       54.13099468       6.61349693      20.70944782
H       36.87160019       6.31937280      19.23645406
O       28.73380353       4.81939210      25.98095732
H       28.57265828       3.84904828      25.67968391
H       29.70431313       4.86746384      25.84017376
O       16.85624419     -37.40197566      11.91208002
H       16.00685134     -37.94344480      11.84842882
H       17.09235489     -37.01121231      12.76880964
S       -0.70868814      -8.38422088      30.73253762
H       -1.10919473      -8.82468651      29.97482682
Li      -0.11360836      -9.02785303      31.25912107
O       30.49532217      -7.18271548      28.62963964
H       30.92533442      -7.82914399      28.05020176
H       29.69801357      -7.65758313      29.04161117
O       17.79688454      36.77151115      16.09832343
H       17.78224366      37.62989245      16.61870069
H       16.96483577      36.28673833      16.15256686
Se      15.59356500     -28.18173445       9.64844363
Na      15.11141653     -27.39470167       9.45161714
Na      15.78565791     -28.15032281      10.61642993
O      -45.81753711      17.25361224      17.57411573
H      -55.27873991      31.75871503      17.56267127
H      -45.62780942      17.59362938      18.50697316
O       17.95099425     -54.05023163      12.93383628
H       18.47495171     -54.76194965      12.47589193
H        8.87491509     -39.11923401      12.29085448
O        1.15682916       3.65480250      22.92579929
H        0.37503989       3.46749964      23.44825026
H        1.86911289       3.36794601      23.60496773
O       -9.62788606     -34.78861212      20.14615966
H       -8.62882656     -34.68975265      19.99780122
H       -9.65329857     -35.20314398      21.07890461
S      -43.23855568      -4.15412796      33.29313477
Li     -42.26651763      -4.01319627      33.22159761
Li     -43.65959536      -3.22761680      33.26588945
O       -1.22525493     -55.28271493      24.12809693
H       -1.30326740     -54.61844032      24.86864050
H       -1.91057442     -54.93640348      23.50103667
O       13.02256120     -15.87267456      22.09926741
H       12.37007485     -16.48621935      22.63541908
H       13.31227180     -16.49546187      21.33058137
O        5.49196397      25.18254738      29.14639040
H       23.14241723      25.76795672      29.10746420
H        5.44354405      24.84098563      30.02767666
O      -48.62283455     -27.25115312      15.65771994
H      -47.86254644     -26.53130452      15.51222865
H      -49.09614041     -26.96672132      16.44932033
S        1.53527778       0.54492395      33.29805586
Li       0.75584514      -0.03643471      32.92734781
Li       1.28894946       1.50622993      33.04161783
O      -50.20767840     -44.74466208      20.95020982
H      -50.91110150     -44.62732624      21.61823319
H      -50.15728665     -43.98805206      20.32569266
O       61.03542736     -31.77291951      12.63441344
H       61.48275794     -30.86440673      12.45894461
H       60.31686198     -31.54576654      13.26979799
O       30.59823480     -24.70166558      15.62185172
H       30.54033633     -25.43403528      16.31992828
H       31.57566918     -24.53622627      15.53269602
O       38.00583782      -7.66894833      14.92296055
H       37.78342309      -8.45151001      15.43063076
H       37.31702747      -6.91374529      15.00768093
S      -41.65023106     -21.43000179      33.55657987
Li     -40.69250880     -21.25752141      33.19306167
Li     -42.13536345     -20.62804092      33.17307782
O      -36.90153237     -30.53843808      24.55592160
H      -19.73907197     -29.75540811      25.05058877
H      -21.00220984     -30.61679122      24.58055988
O       54.10750074     -18.30496309      16.11969323
H       54.05474593     -17.34006960      16.09280862
H       54.26421524     -18.50334281      15.16908983
O        5.93672904     -71.91169580      26.09110923
H        6.35843787     -71.33780584      25.37509654
H        4.92325692     -71.66734864      25.93170119
O      -31.97281871      10.27979807      27.83945980
H      -32.25520425       9.43935064      27.38801172
H      -30.96200540      10.09761494      27.91695730
S       54.17574609       9.55909035      32.10809050
Li      54.98379353      10.06901661      32.43538013
H       54.30304283       8.59203880      32.26902522
O       10.38095626     -71.40723850      25.38984912
H        9.70240286     -71.83952957      24.87945170
H        9.90974579     -70.94941921      26.15369754
O      -17.75803900      23.77919995      29.69284275
H      -17.92831616      24.63112734      29.25346288
H      -18.43208045      23.14424131      29.44287105
O       55.25815646      35.27795218      15.64840824
H       54.54422973      35.47001326      14.98755870
H       55.50135740      34.32096108      15.37372809
O      -22.70378080     -41.47384859      11.62623957
H      -22.62897279     -41.84465324      10.74462009
H      -22.98507285     -42.27051574      12.08625045
O        2.72901475     -23.21253211      17.54088214
H        2.10088267     -22.68575374      16.94098438
H        3.56285062     -23.19940197      16.98666221
Se     -47.22969459       6.83117769       8.89733703
Na     -47.36565883       5.89640072       8.92281461
Na     -46.29028715       7.06898052       8.92143218
O        6.36595512     -41.64651033      32.66397979
H        6.49523799     -41.60604694      33.66087323
H        5.97864663     -40.74214230      32.42416697
O       35.42672824      -9.14962072      21.49822371
H       26.15072428       6.03012895      21.37826554
H       35.70088755      -8.95735133      22.47027530
Se     -42.38210534     -24.49227313       8.21408101
Na     -42.31379199     -23.59882959       8.60688996
Na     -43.32398125     -24.95725709       8.36829901
O        6.17086333     -32.19839699      20.47689932
H        6.13508341     -33.23459721      20.28973342
H        7.11295946     -32.18146059      20.81958060
O       27.32090904       0.27455395      27.27051496
H       26.76170724      -0.49715785      27.02438337
H       26.76150926       0.95852383      27.65932908
O      -61.93623229      -9.70866377      10.93829874
H      -62.75822416      -9.25938880      11.23869377
H      -61.56042378     -10.30291268      11.62742754
O       32.11201000     -40.60496182      18.41101075
H       31.52717725     -40.33678285      19.17462720
H       32.50902878     -39.77012976      18.17970541
O       31.73184089       7.27999450      18.19332664
H       48.77566948       8.10585468      18.71661386
H       31.86950090       7.56393521      17.26082225
O       26.99307044      67.82763759      28.04098410
H       27.86767901      67.55517304      27.71933319
H       43.67471782      67.18763820      28.77631511
O      -32.64567386     -11.85577468      21.68226470
H      -32.53424589     -10.88048240      21.53134966
H      -32.77861708     -12.37577187      20.81172780
O      -16.51878218     -31.00791767      13.28644952
H      -16.27677855     -31.46646780      14.12146552
H      -16.91341262     -31.69512541      12.68437387
S       -8.56340146      47.03097437      29.35623325
H       -8.73185791      47.99478549      29.53644828
Li      -8.15761802      46.74379426      30.21240975
Se      33.42234701      35.09088903      11.12748913
Na      25.39769786      50.12880734      10.33839718
H       32.51539182      34.85016903      11.04942901
O       48.23891034      -4.77191261      20.10326526
H       48.09652467      -4.81604423      19.09374494
H       49.20294195      -5.00443606      20.28870987
S       29.44347483     -18.78520622      32.40041833
H       29.66373568     -18.34554156      33.26957545
Li      28.69605126     -18.21691893      32.09624467
O       42.72466504     -38.09794129      21.49351212
H       43.56688492     -37.83544573      21.05618938
H       42.98124483     -38.78788521      22.12604076
O       -9.45433269       2.12448757      23.34562327
H      -10.31174613       2.60112871      23.01397035
H       -8.70677910       2.15152980      22.66622311
O      -18.47908081     -18.88798383      13.82490624
H      -17.96735201     -19.27725335      13.09971682
H      -19.45592530     -18.72837536      13.47060807
Se      14.39910107     -39.97552405       9.09295941
Na      14.38652270     -41.01191604       9.29743303
H       13.78122946     -39.89231243       8.29482719
Se     -18.59042167      11.79870010       8.16604589
Na     -17.73265042      12.07726224       8.54712285
Na     -18.70485897      10.83928158       8.47958863
O       18.87240976       6.65412229      24.57477825
H       18.59771981       6.36282759      23.69074346
H       18.99778044       7.68478912      24.44750926
O       23.56646795      28.29328843      18.54192689
H       22.63315037      28.40993171      18.66535994
H       32.31868082      42.33371943      19.28809493
O        0.76874637     -16.66738826      30.92653745
H        1.57248027     -16.27844391      30.47940981
H        0.93356799     -17.67289706      30.91443596
O        7.80084397     -13.55951531      16.90987099
H        8.06107958     -13.95169983      17.86346924
H        7.49038198     -12.70996642      17.35027625
O        8.75241662     -21.45913393      26.02321593
H        8.14280060     -22.13207282      26.37563179
H        9.13779143     -21.05221264      26.81725070
O      -31.22241153       0.60871220      21.58492290
H      -48.90856149       0.17791124      21.78175712
H      -30.43714553      -0.00968248      21.76278429
O       -1.96424385     -27.91341947      28.51337540
H       -2.21413619     -28.06009610      27.57617109
H       -1.37763146     -27.11558831      28.55932283
O       10.42468182     -24.33053698      14.78284570
H        1.96813874      -9.91791949      15.72734502
H       10.56729364     -25.15689380      14.29376595
O      -17.79687993      43.06692680      11.85599590
H       -0.56897550      42.55590963      12.60664324
H      -17.57909153      43.93799240      12.10844288
O        6.99198797     -23.54666800      26.68354939
H        6.83442820     -23.94309584      27.50740484
H        7.25481465     -24.34048479      26.11734191
O       20.82019041     -49.93500068      21.51385371
H       19.98810820     -49.44954564      21.05428292
H       21.58511740     -49.40764845      21.09338518
O      -22.02124967      -0.83436346      29.52057886
H      -22.32095455      -0.46790697      28.67291891
H      -21.66664999      -0.11778047      30.06005506
O        3.73574234     -21.60589923      11.85451809
H        3.34914184     -21.72883679      10.94618863
H        3.12654821     -21.95557973      12.51385550
O       -7.82365682       1.61196234      19.26372130
H       -8.62727520       2.06692192      18.96940402
H       -7.19649232       1.76124084      18.52300466
Se     -16.95303580      -7.32862232       9.48123497
Na     -17.89305725      -7.14669640       9.32266546
Na     -16.92375600      -7.68035673      10.39634902
O      -35.50184255     -17.48668652      25.56893322
H      -35.26378919     -16.81927286      24.88976732
H      -36.45966173     -17.78474538      25.29592771
Se       0.61888107      26.93538079      10.51492310
Na       1.49286011      26.90387065      10.09274303
H       -0.03556159      26.80736204       9.77926154
O      -26.57597695      22.59913159      22.73301251
H      -27.50488308      22.20441018      22.85764249
H      -26.11365350      21.70688001      22.75963081
O       20.38004034     -12.21560943      22.96803709
H       21.01516046     -12.74633930      22.53531181
H       19.54159167     -12.23942838      22.50604942
O      -15.05356601      -4.16416648      18.41947679
H      -14.39423738      -3.38812230      18.60280267
H      -15.44350374      -3.96758327      17.49748620
O       29.69200234     -18.65954493      10.57031884
H       29.40238133     -17.96153155       9.99774920
H       28.89897545     -19.27163547      10.63415625
O      -71.94084355     -26.62394438      29.53493708
H      -71.43362044     -27.17832300      28.91741230
H      -72.42375421     -25.81236650      29.04295147
O       11.30288521     -12.74661912      19.20132359
H       10.99144259     -13.39299649      19.94529584
H       10.45908506     -12.14863451      19.18994653
O      -34.62013835      34.29112088      19.29003662
H      -35.03339664      35.14731983      18.95147334
H      -34.04391270      34.47291349      20.10544581
Se     -30.76175057      -2.17451624       9.01513063
H      -30.91020532      -2.33178785       8.08516250
Na     -30.86620648      -1.14521565       9.08295207
O       16.29793905     -11.70724142      25.76763046
H       24.66755913     -26.56590252      24.80443552
H       -1.29377078     -12.23493339      26.15348112
Se      15.01903707       9.45154774       9.43974924
Na      14.08039477       9.66238091       9.73549657
H       14.96808245       8.66628466       8.85530603
O       -5.68465687      13.47443435      26.61785340
H       -6.66078287      13.46857883      26.54488981
H       -5.41972459      14.41979001      26.54113476
O        8.17207842     -43.53029666      24.46252313
H        8.12544568     -44.22094449      25.20146072
H        8.24244500     -43.96739746      23.59991492
O      -11.57196815     -10.36475119      31.16016232
H      -10.82138904      -9.94779818      30.66687258
H      -12.00693889     -10.94968540      30.48077508
O       20.19940171     -12.48627100      25.76307875
H       19.86763127     -12.62673331      24.85667190
H       19.72838797     -13.09966360      26.31839208
O       36.04069507     -39.06251104      28.57224185
H       35.89734670     -38.20323960      29.04549331
H       36.37329268     -38.74526223      27.65968181
Se      30.91650887     -29.89480040       8.27984661
Na      29.95462154     -29.92919047       8.49871728
Na      31.44674531     -29.18411885       8.78590767
Se     -57.82387107       9.58047094       8.67962304
H      -57.37462096       9.20006944       7.85708762
Na     -58.29232782       8.74422180       9.08402603
O       46.04141095       8.45397727      24.99326245
H       45.34999765       7.87793953      25.31198962
H       45.83675052       9.38138792      25.06558901
O       31.00320890     -12.78841367      16.64621801
H       31.56238357     -12.25498786      17.32520148
H       30.52129266     -13.46170913      17.15733122
O        2.08661296     -41.55965747      17.15994207
H        1.78263287     -40.50864959      17.15251611
H        1.87215433     -42.09668118      16.33050162
O        1.10407860     -19.49633076      30.84164277
H        1.07582231     -19.49528825      29.84554403
H        2.09136687     -19.59006063      30.95025446
O       -0.78168959      16.32347467      12.62806586
H       -0.04029691      16.88505564      12.30262931
H       -1.66189560      16.79950683      12.33161158
O        6.50199739     -37.18685688      27.89006835
H        7.33883591     -36.79467916      27.62832333
H        5.81862418     -36.44385337      27.81200927
Se       6.17718379      -7.73524622       8.76327439
Na       5.20606433      -7.68038161       8.97818554
H        6.23822229      -8.27779563       7.89659897
Se       3.39122518      50.51882406       9.26043944
Na       3.22329460      51.36362133       9.85996389
H        3.07956059      50.83312460       8.34677705
O       51.72772913      26.28900378      15.81983086
H       52.33645208      27.06441010      15.81302368
H       50.85088121      26.59303383      16.18695927
O       38.40632163      43.44618813      18.49102533
H       37.64944015      43.05800845      18.01867128
H       38.55023157      44.31267174      18.01255432
O        9.96547607      13.35021109      30.46015403
H       17.51059429      -1.25359227      30.00419338
H       10.60839999      12.81841506      29.89815779
O       29.79963317      -2.70440445      20.29016185
H       30.48529580      -3.39904230      20.07378702
H       30.31949861      -1.94621900      20.01260121
O       38.82277046      48.40062536      22.62985505
H       37.95309274      47.85840294      22.64724949
H       39.07988494      48.20346784      21.68855731
O       29.83912619     -15.71265242      13.83486736
H       29.70408233     -15.33358937      12.93219873
H       30.64704104     -15.21766368      14.17595971
O       15.72313169      -2.32301841      17.21178187
H       15.09343775      -1.81423019      16.56446649
H       15.17025093      -3.15523887      17.24824711
Se      -3.30003400     -62.33605178       9.25933801
H       -4.27123938     -62.26212738       9.19700704
Na      -3.06390890     -62.27664782      10.19970289
O       16.25000107     -32.75883267      27.90538540
H       17.11367020     -33.16646771      27.74419280
H       15.63528136     -32.85772413      27.05326955
O      -34.24090504       4.86581031      15.45562409
H      -33.68488847       4.68126863      14.63451217
H      -33.84736200       4.31014162      16.09383653
S       25.73940301      17.42026913      31.99539667
Li      24.81414249      17.09247663      32.15796186
Li      25.82040023      18.27043079      32.54339173
O       12.52363576     -14.60096930      17.99205939
H       12.00012504     -13.75552077      18.18550855
H       12.03127066     -15.15101623      17.27692125
O       17.98868245     -25.27981590      18.03750572
H       18.51393397     -24.62446778      17.62949467
H       25.60641709     -39.44964243      18.40230787
S      -20.99850809       0.46058286      32.11523381
Li     -20.09409908       0.91892088      32.33696265
H      -21.75396922       1.15917536      32.34852398
O       -9.58817176      15.82934770      12.34164092
H      -10.26419158      15.05924456      12.24699964
H       -8.73373211      15.59091182      12.81921161
O       26.15644858     -55.97283271      28.18025653
H       26.69192757     -55.10503840      28.36317117
H       25.76083527     -55.97204234      27.22624079
Se      34.49187676       7.19041400       8.86359821
H       34.26957502       7.97167478       8.35627145
Na      43.96221883      -7.44368652       8.93251539
O       35.15022552      29.85171518      13.20494510
H       34.86416238      28.84291947      13.25443193
H       35.20651460      30.21070204      14.17180358
O       25.37413072     -15.19937375      18.93884611
H       25.06785132     -15.24516913      19.85640975
H       25.09672028     -15.99339884      18.43896591
O      -24.17114822     -34.15425648      17.58773560
H      -25.00135530     -33.60660378      17.67407103
H      -23.58886484     -33.58961755      17.09330675
O      -12.31342117     -23.95371615      24.74632309
H      -12.44295092     -24.40470282      25.63348258
H        3.69161923     -23.44709310      24.65160244
O        4.03068555     -32.48775798      24.90694871
H        3.61997080     -31.92364981      25.59428997
H        3.32575390     -32.68590203      24.19122463
S      -16.48602167       7.26029936      31.71342083
Li     -16.19487299       8.05659208      31.27467219
Li     -17.37254723       7.43776085      32.15555201
S       63.16362489      -9.30692866      32.40535973
H       63.59350413     -10.11816610      32.02665971
Li      63.78719775      -8.42148168      32.25194640
O       12.69175816     -40.14992548      27.15296801
H       13.06458452     -41.04080920      26.82324101
H       -5.08990324     -40.39336051      27.46383485
O       35.60510110     -39.13977890      17.55695006
H       34.66280929     -38.92683641      17.89245897
H       36.22108238     -38.76546187      18.22992958
O       53.34099860      25.58054604      22.71320289
H       52.38175077      25.50092719      22.66990529
H       53.77913564      24.93337969      21.95775223
O       23.68611345     -50.86500346      16.44620896
H       24.48248902     -50.95779735      15.86721337
H       22.88514683     -51.37198319      16.08114668
O      -47.75505274     -63.86938076      14.80254557
H      -47.44430352     -63.28989612      15.58062118
H      -47.20610464     -63.46792682      14.01816141
O       27.28726087     -22.95994389      24.06316141
H       26.58213651     -22.49237621      24.56811877
H       27.68063447     -23.64806921      24.69096659
Se     -33.27347049      28.90983736       8.12250769
Na     -33.93687766      29.38660105       8.83539035
Na     -33.37549384      27.95949087       8.07796545
S        1.81296604      -3.02830113      32.28725541
Li       1.65704739      -2.20079551      31.71346646
H        1.81960408      -2.70890786      33.21457858
O        7.86562627      64.17999340      18.21603226
H        7.44342087      64.88725638      17.62889667
H        7.95363051      64.52999368      19.11366581
O       35.70113235      60.90813050      27.85821893
H       34.92527289      61.24567349      28.41827385
H       36.02889473      60.16272755      28.41175040
O       28.05954808      56.40087125      24.56301136
H       27.81775593      56.20646532      23.63243285
H       27.33242610      56.11335468      25.14472076
O       12.78975529     -19.77241809      20.92364494
H        3.95314326      -5.54073254      20.12582854
H       13.13603165     -20.54458374      21.41837739
S       30.95734766      25.55088724      32.39620279
Li      22.36831716      40.41739036      31.45741398
Li      23.52579923      40.00863997      32.50129897
O       -0.94465313       5.63440996      30.13287891
H       -1.38093639       6.09234907      29.37535491
H       -0.45051533       6.25736532      30.72538028
O      -27.75905399     -18.35549635      25.89105316
H      -27.45009994     -19.02949345      25.24768416
H      -28.11237004     -17.53092960      25.41054987
O       26.70459192       0.66147172      15.11700840
H       25.76768790       0.59762550      14.93638485
H       27.15625618       1.10844613      14.38683525
O       13.22057236      18.23468467      20.09983376
H       12.64991835      19.02120333      20.06666074
H       12.57331906      17.51408832      19.89695887
O      -55.54704319       6.13758318      12.32903306
H      -55.17046967       6.33409709      13.27378156
H      -56.25154360       5.45024355      12.43859498
Se     -11.01855127     -21.28705685       8.85850761
H      -10.97705129     -21.43552809       7.85126137
Na     -11.39497812     -20.33996632       9.00331221
Se      28.47045161      -1.15929233       8.91248168
Na      28.06833252      -1.93740617       9.30379580
H       28.07900286      -1.13317913       8.02833453
O      -43.24942433      -2.00697142      28.68716792
H      -42.83174085      -2.10106638      27.79142363
H      -42.52680610      -2.10114846      29.36145458
O      -15.91190597      12.44702817      26.48158000
H      -15.58834954      11.61938427      26.95181596
H      -16.71094185      12.13230008      25.99667745
O        1.67713978      -7.37993953      29.81220150
H        0.76554183      -7.37768730      30.28707403
H        2.36861986      -7.28110900      30.54445710
O       33.94024907     -46.27444673      14.57513336
H       33.19984319     -46.82994774      14.08511429
H       33.49670057     -45.38686834      14.78960232
O       27.90720272      13.77929792      15.71373452
H       27.61425461      14.72173132      15.93084456
H       28.57864637      13.66799396      14.98322047
O      -35.08145652      -5.56388261      24.49731782
H      -34.52327979      -6.07888605      25.18772423
H      -35.46486660      -6.26275946      23.89778731
O       33.11511754     -49.17306592      25.23765096
H       32.68353064     -48.23356484      25.08340772
H       32.88429966     -49.57636744      24.40019757
O      -20.29891697       9.96554488      16.82736617
H      -19.90944497       9.27388320      16.32089828
H      -19.45147424      10.41948938      17.11258580
O       -8.30777404      10.35539152      22.84516794
H       -8.87947914      11.14078573      22.75470307
H       -8.83894796       9.89420745      23.54672479
S       -8.76688105      10.02020028      32.26641009
Li      -7.82068377      10.49520545      32.11592045
Li      -8.98379645       9.61221934      31.35220680
O        6.18557148     -24.64163205      28.99378539
H        6.52047091     -25.51418104      29.37546334
H        5.36039841     -24.88827287      28.53654951
O        5.14839496     -25.92136838      22.75709316