387
Lattice="11.246000289916992 0.0 0.0 0.0 11.246000289916992 0.0 0.0 0.0 35.939998626708984" Properties=species:S:1:pos:R:3 i=0 time=0.0 E=-4192.6867006654 pbc="T T T"
H        8.61305809       6.57150316       8.45587349
H        8.88239002       8.17238235       8.24947357
H        5.39701366       8.14696980       8.01202393
H        6.90502548       8.09845161       7.44633675
H        2.02990460       2.24645042      17.60914993
H        2.55799580       2.72850108      19.01052284
H        7.38087893      11.18517971      10.83634090
H        7.35903311      10.69126034      12.40447617
H       10.73192406       3.45753527      27.99365807
H        9.23311710       3.75264597      27.24053383
H        9.72184563       5.46819973      25.22091103
H       10.86304760       6.07384586      24.39374161
H        0.44862607       8.84860897      17.70694351
H        0.86935252       9.35958385      16.26508904
H        5.54147911       1.01370788      13.10571480
H        5.90974426      10.86266232      13.64621830
H       10.65631962       4.31526184      23.03323746
H        0.02508332       4.69040442      21.64318275
H        5.30595493       4.63615417      27.75864792
H        6.00678968       3.48637986      28.52363777
H        2.39020920       9.03553391      11.80510426
H        3.91752386       8.92155361      11.92394924
H        4.16645193       1.44862413      23.27264595
H        3.83784175       2.92163539      23.10388756
H        0.54128534       6.11255026      28.84552765
H        0.98399252       5.72921181      27.29947090
H        1.70571983       0.03873270      16.81778526
H        1.18334889       0.50814581      15.32628632
H        1.43310869       5.55328178       9.46721363
H        0.73501968       6.75512600      10.17470741
H        7.10832453       3.81390786      22.81336784
H        6.18091822       3.08724070      24.07454300
H       10.73801327       9.04364395      26.75346756
H       10.92628574       7.48993874      27.13598824
H        4.73111200       0.14234854      28.33985329
H        4.10279083       0.63505101      27.03017616
H        0.99133670      10.15125275      27.85238266
H        2.61713290      10.47894096      28.13817596
H        5.98034859       7.64417267      11.24973106
H        6.16939163       9.26330376      10.98091984
H        4.29147577       8.42096424      10.07318783
H        3.55660582       7.01825047       9.74815559
H        2.17954469      10.99021816      20.53953552
H        1.35043263       1.02958560      19.87018394
H       10.33157444       6.64652634      20.44117928
H        0.10491538       5.75835800      19.75285530
H       11.10344505       9.22357655       8.11438370
H        9.80789852      10.12502098       7.69131422
H        8.63029385      11.06590748      14.91551685
H        9.07761478       9.54477787      14.53438854
H        1.20703244      10.78414154      22.24958038
H        1.73249400      10.54552937      23.84980392
H        0.91867125       3.93070269      18.50747490
H        1.07407892       5.29628229      17.88377571
H        0.93966806       5.97554779      15.01575184
H       10.84764767       6.80038786      14.64253902
H        0.44010165       1.29158425       8.51741409
H        1.19575739       2.27758241       7.49607706
H        2.19670248       4.40153933      16.02160454
H        2.65848899       5.89476013      16.51514626
H        5.06854153       5.12663555      14.68728256
H        3.59823060       4.92708969      14.20695400
H        8.90975571       0.53395963      19.39507866
H        7.65026569       1.55102837      19.40577507
H        8.69353390       9.02890682      11.39823055
H        9.02289009       7.98376560      10.35275841
H        4.75007534      10.98101711       7.49393511
H        5.97413540      10.10574150       7.48770380
H        3.80326629       1.73627591      11.69853210
H        4.53964901       2.89144135      12.40937996
H        1.62613630       6.67965937      21.32248116
H        2.14753199       7.44267750      22.57476234
H        5.56866598       1.68097353      15.03034878
H        5.91755199       3.01002932      15.53585720
H        6.65047979      10.77579403      17.82347107
H        6.51951790       9.67281151      16.84592819
H        3.29611945       2.95475006      21.00455475
H        4.15982199       4.21912241      20.30845070
H        5.50164366       1.45697939      17.20016289
H        5.43927431       1.29430115      18.84403229
H        6.24998283       4.14585447      10.35500050
H        6.01363039       5.47574615      11.01633644
H        8.15095425       2.84159446      12.49838543
H        9.37979984       3.63708282      13.07297325
H        6.10038424       6.55740023      16.77538872
H        6.97488928       5.96334314      15.72330093
H        2.28436923       1.74892068      13.14017773
H        0.90476066       2.45123649      13.29215908
H        2.36019635       8.24274063       8.68999481
H        1.19391000       8.03784466       7.63280296
H        6.96430683       8.62037468      23.20849991
H        7.32937813       8.09058380      21.61728287
H       10.02779579      11.11127949      23.94449615
H       10.36864567       1.13085938      24.84485245
H       10.57605934       9.42735004      22.87402534
H        8.92467690       9.02356625      22.75501442
H        4.28146362       8.56093407      14.87946224
H        2.69644165       8.31309605      15.20970535
H        9.58506203       1.66826034       6.98220921
H        9.39871979       1.62055445       8.55812359
H        5.61625862       7.41847801      24.41972733
H        6.51953506       8.28916550      25.38702583
H       11.10462952       0.84610766      13.14018536
H        9.63570309       0.04104459      13.08167171
H       11.23853111       4.56417322      14.06252098
H       10.53881073       3.39495730      14.99438190
H        5.60015774       5.26177788      24.16156578
H        4.22546005       5.86659479      24.31392097
H        8.61260033       7.54954338      15.54016018
H       10.06998825       7.99188852      16.17427063
H        8.15339184       4.09074211       8.91838455
H        6.67746353       3.59090519       8.56581020
H        0.62832862       8.00553513      24.94163132
H        1.70294154       6.83157349      24.90142059
H        7.27533197      10.57494068      27.59690094
H        7.10669899       0.45216352      26.60534859
H        7.87516975       2.31690192      10.01927662
H        8.99208736       1.62169528      11.03235817
H       10.27368164       5.40405941       9.03546906
H        9.95837593       4.78728628       7.61988258
H        1.08512497       2.73801374      22.37358284
H        1.71605647       1.59254980      21.63367462
H        9.20569420       2.10714912      28.46283913
H        8.22164631       1.04886651      27.95333862
H        7.60902357       3.51388216      20.48664474
H        8.93625259       3.91176057      21.45597839
H        8.08670521       8.56453323      18.11822701
H        9.15266609       8.41479969      19.20636940
H        5.16285467       2.36927462      20.59735107
H        6.14033699       1.18132782      20.93585587
H        0.29963392       2.14423680      26.22136307
H       10.70648193       3.20277262      25.18341064
H        6.72283173       0.30991417      23.34367561
H        6.58445215      10.44727993      22.19291878
H        3.93315172       7.53265810      17.09311676
H        4.24036360       6.60000134      18.37101746
H        8.49176788       8.66061401      27.63096046
H        7.28984404       8.97563553      28.49041557
H        3.00006819       8.86078835      27.67096710
H        3.55122757       8.25875568      26.28534508
H       10.90662003      10.34338093       9.88199425
H       10.85840511       0.11244779      11.14399338
H       11.12538052       7.98995733      11.72238350
H        1.00182772       7.27191877      12.69381714
H        6.36274529       7.89817333      14.52020168
H        5.79681540       8.35164642      13.11461067
H        2.00436139       2.45484543      15.06945801
H        3.39770293       2.68511581      15.70979881
H       10.68975925      10.89379692      25.91953850
H       10.27615261       0.18333390      27.43609619
H        3.09766912       5.56283092      28.87518883
H        3.20290899       6.66846180      27.73191643
H        3.53154445      10.86223698      10.71382523
H        2.59114170       0.42996562       9.90292740
H        4.12687159       1.97333121      25.57689476
H        4.98329020       2.17223382      26.91487503
H        8.03379440       4.03916836      25.22439194
H        7.41301298       4.28472948      26.59982109
H        2.93046069       9.70457649      19.33787346
H        2.61440110       8.85565281      20.63899040
H        2.75007820       3.64792275       9.56188011
H        4.02581549       4.55430508      10.09654903
H        2.60790324       4.12445068      24.95106506
H        3.05599761       4.93127680      26.24315071
H        4.59210062      10.84547138      24.61147881
H        4.07290411      10.55415154      23.25212860
H        9.10454082       1.07516134      17.12301445
H       10.48361301       0.79009342      16.32995033
H        7.56711054       5.53948212      12.37107182
H        8.02409458       6.96056986      11.95161152
H        2.58347297       2.51148295      27.74634933
H        1.56489730       2.32698178      28.95829201
H        9.85812664       2.66443586      16.77257919
H       10.35589027       4.25580168      17.27653503
H        5.04590702       2.97269773       7.11613178
H        4.52254105       2.13020945       8.42113304
H        7.73831558       4.10932970      14.52691078
H        8.13656902       4.10492754      16.00950813
H        2.27455211       0.30623823       7.81584024
H        2.57819819      10.00973034       7.53768206
H       10.72475147      10.24095917      20.09765244
H        9.41454506      10.00526905      20.94285011
H        4.07575989       6.31092930      20.74854851
H        5.71120739       6.14820385      20.43389511
H        3.46155596       9.70640373      16.73303986
H        3.96251345      10.95602894      17.65266991
H        7.58807898       1.93792593      24.47944069
H        8.43901825       0.65305668      24.86560822
H        7.61213017       5.75140667      21.04586220
H        7.70920610       6.90063667      19.73467827
H        8.20280266       6.62435389      27.95744514
H        9.17759323       5.43594885      28.11567688
H        3.63009214       5.24953365       7.67331743
H        4.19687557       6.52588940       6.86369848
O        8.27280521       7.49414396       8.62499142
O        5.91793680       8.37442207       7.25879049
O        1.71236753       2.45941782      18.56212997
O        7.15756321      10.46368885      11.48647881
O        9.78344059       3.80716348      28.07828331
O       10.47594547       5.22736931      24.71571159
O        0.61023259       8.55429077      16.79018402
O        6.20018578       0.58676976      13.73225498
O       10.88589573       3.92364430      22.19180489
O        6.05584478       4.01779032      27.69406891
O        3.19784808       9.58659363      11.72067738
O        4.39280653       2.34528184      23.66653061
O        0.31201410       6.16327381      27.86768723
O        0.93969733       0.09917310      16.22638321
O        0.56891757       6.08402395       9.45413399
O        6.97393036       3.62299275      23.80602264
O       10.49800491       8.16101742      26.54714966
O        3.88799787       0.48023751      27.94293213
O        1.82637310       9.91786957      28.26743126
O        5.63422108       8.46051884      10.82194328
O        3.81321311       7.85481024       9.33165836
O        1.41434634       0.41903934      20.63621902
O       11.19167137       6.16033792      20.61316109
O       10.10356140       9.34368134       8.23566055
O        8.70916367      10.38685322      14.20018673
O        1.00377393      10.40001202      23.16546631
O        0.46434316       4.75884247      18.36144447
O        0.33549440       6.22778606      14.26202679
O        1.34158003       1.68800867       8.31839848
O        1.92185998       5.35314322      16.26343536
O        4.49241686       5.00451374      13.87160110
O        8.60081005       1.45218635      19.22781181
O        9.11371136       8.11332893      11.33354282
O        5.71280098      11.03625393       7.20422411
O        4.06376934       2.08529568      12.56520748
O        2.41977668       7.18400478      21.64044762
O        5.18892097       2.37434292      15.61475658
O        6.99281073       9.83578682      17.68660545
O        3.83724809       3.27454138      20.25638008
O        5.21854210       0.84084177      17.97559166
O        5.53459978       4.62563801      10.86522484
O        8.36773968       3.68683219      12.94931698
O        6.67892551       6.85698605      16.00204086
O        1.38201165       1.63778734      13.52297592
O        1.59046292       8.67859173       8.18195057
O        7.23671246       8.87573433      22.30994034
O        9.80167007       0.32530314      24.74684143
O        9.63183975       9.71972275      22.81852150
O        3.52815700       8.73340321      15.50963593
O        9.83898544       1.18570399       7.81017971
O        5.95243263       8.38091373      24.60550117
O       10.25794983       0.68125874      12.62394428
O       10.89566517       3.58638668      14.06865311
O        5.06329918       6.03402805      23.82743073
O        9.52026367       7.83973026      15.39969921
O        7.44089413       3.46565223       9.15202618
O        1.15499282       7.43429184      24.33490753
O        6.82411766       0.24582601      27.50180054
O        8.13621330       1.56328893      10.59666061
O        9.61436367       4.90422773       8.49818230
O        1.97953546       2.39518619      22.16987419
O        9.13290882       1.16504097      28.27053642
O        8.01900196       4.07759714      21.15642929
O        8.65599442       7.93250370      18.54163742
O        5.98934269       1.91480768      20.24551582
O        0.03637681       2.38488555      25.29808426
O        6.24162149       0.10436160      22.47631264
O        4.28225994       6.62662697      17.38943100
O        7.52062368       8.88198471      27.54307365
O        3.62094331       8.21565056      27.27122307
O        0.16603862      11.03683567      10.38816357
O        0.83513039       7.94098854      11.90687847
O        5.91299868       8.62710667      14.01876831
O        2.47397566       2.87170386      15.86021423
O       10.89770222      10.76303864      26.92970657
O        3.08437872       5.71652746      27.90207481
O        3.48769951       0.54534101      10.26754475
O        4.94015265       1.80412221      26.03937912
O        8.28889084       4.31605482      26.17041206
O        3.10473585       9.61044216      20.32899284
O        3.10122871       4.55230570       9.67115402
O        2.87604666       5.00600481      25.26320457
O        3.76847911      10.89851952      24.08289909
O        9.56709576       1.11236179      16.30226898
O        7.25072241       6.42994881      12.10747814
O        1.54036117       2.57469773      27.97457695
O        9.71890831       3.66214705      16.76432991
O        4.94886160       2.97577786       8.13097858
O        7.42099905       4.28895044      15.46789265
O        2.96947527      10.95341778       7.38968563
O        9.82931995       9.79950905      20.03980255
O        4.75813627       5.98292112      20.14001274
O        3.20847535      10.25805759      17.54823112
O        7.56816053       1.06781864      24.85113525
O        7.40151167       6.66362667      20.65944862
O        8.47027969       5.91495514      28.56381416
O        3.42305231       5.88402414       6.96785831
Pt       0.08415931      11.19463253       5.09063911
Pt       2.90909767       0.08832309       5.09441471
Pt       5.74149275       0.10039829       5.15872717
Pt       8.53121948       0.14205697       5.18510914
Pt      11.09487247       2.89335990       5.19073534
Pt       2.68283510       2.84525108       5.15585661
Pt       5.63011932       2.91864944       5.05041313
Pt       8.44495487       2.92887497       5.07271576
Pt      11.03975296       5.69478559       5.08010674
Pt       2.77665377       5.70740652       5.06327057
Pt       5.54893446       5.67410421       5.19898129
Pt       8.31430531       5.68159676       5.09175682
Pt      11.15334415       8.39384079       5.11953592
Pt       2.80684137       8.42563248       5.16451836
Pt       5.54856873       8.41888332       5.03072309
Pt       8.36389065       8.52029800       5.08483553
Pt       1.34217620       1.40693855       3.09194016
Pt       4.23830366       1.42390132       3.08214331
Pt       7.02063417       1.39150167       3.08741927
Pt       9.81299591       1.43263042       3.06827164
Pt       1.41745996       4.19352531       3.04118395
Pt       4.24416399       4.24101162       3.04152942
Pt       7.05038261       4.24012852       3.07587337
Pt       9.81698132       4.22088337       3.02899528
Pt       1.42298043       6.99007511       3.03159285
Pt       4.19971275       7.05975962       3.01682901
Pt       7.01572466       7.04169655       3.01902294
Pt       9.84155750       7.04740143       3.03944588
Pt       1.41035843       9.84652233       3.05876923
Pt       4.29091883       9.82047844       3.08485746
Pt       6.96644974       9.88065720       3.03126884
Pt       9.85811424       9.85764217       3.05580711
Pt       0.00151692       0.00438897       1.06212509
Pt       2.89184690      11.22705555       1.01114285
Pt       5.65148735       0.02219999       1.05999386
Pt       8.45391464      11.23203087       1.02978539
Pt       0.00034494       2.81558871       1.03519082
Pt       2.80721283       2.82598495       1.03267479
Pt       5.60765362       2.83575749       0.99462032
Pt       8.46316719       2.78288460       1.01407897
Pt       0.00191799       5.70841408       1.02699673
Pt       2.79643965       5.62934685       1.03060436
Pt       5.57775927       5.61916542       0.98690701
Pt       8.43037128       5.65118074       0.99636710
Pt      11.22908878       8.43961048       1.02368248
Pt       2.81394935       8.42106342       0.99696988
Pt       5.61866379       8.41616535       1.07571721
Pt       8.44215012       8.43427563       1.00924504
Pt       1.42556989       1.37254810      34.93333054
Pt       4.25662470       1.39186573      34.89170837
Pt       7.03394318       1.40896118      34.94701385
Pt       9.85448551       1.40018034      34.93589020
Pt       1.41157556       4.26264143      34.91842270
Pt       4.24375677       4.24272728      34.95123291
Pt       7.00253296       4.24606180      34.95540237
Pt       9.84466839       4.20738649      34.92015839
Pt       1.37328100       6.99650192      34.92655182
Pt       4.19085503       7.02292109      34.90573883
Pt       7.06561756       7.05719757      34.92413330
Pt       9.81803608       7.06296921      34.90577698
Pt       1.40943873       9.82473469      34.90026093
Pt       4.22053957       9.83103561      34.87108994
Pt       7.02110386       9.83475399      34.89041138
Pt       9.84676075       9.85799122      34.91717911
Pt       0.03500027      11.21807766      32.84441376
Pt       2.78636050      11.24478626      32.87760925
Pt       5.64409494       0.00549698      32.88736343
Pt       8.50244617      11.22221184      32.88055420
Pt       0.01344096       2.78851891      32.88648224
Pt       2.80053282       2.81030703      32.84314346
Pt       5.57572985       2.81350040      32.87877655
Pt       8.43229580       2.81000113      32.88565063
Pt       0.05054155       5.59885502      32.87548447
Pt       2.80752897       5.60946560      32.86936188
Pt       5.59008026       5.59166670      32.92717361
Pt       8.39461136       5.61145782      32.86165619
Pt      11.17577934       8.42768288      32.89167786
Pt       2.79113722       8.44242477      32.92811584
Pt       5.64240503       8.42932796      32.92301178
Pt       8.41924381       8.45585155      32.88809586
Pt       1.43622983       1.42987895      30.82336998
Pt       4.36737680       1.33757961      30.75330925
Pt       7.07459497       1.17448509      30.80034637
Pt      10.03484917       1.22032547      30.75852776
Pt       1.46031761       4.23159552      30.84583473
Pt       4.37952328       4.14373779      30.75101662
Pt       7.13885880       3.98848462      30.78352928
Pt       9.93767929       4.17272663      30.78000259
Pt       1.43154860       6.96187878      30.81411171
Pt       4.26228142       6.88229942      30.77907181
Pt       7.03382158       6.84741688      30.91165352
Pt       9.85515499       6.87575436      30.70043373
Pt       1.45040905       9.79569721      30.84227180
Pt       4.25943565       9.65180111      30.83845901
Pt       6.98457718       9.63173866      30.79890251
Pt       9.76246929       9.62906742      30.79715729
387
Lattice="11.246000289916992 0.0 0.0 0.0 11.246000289916992 0.0 0.0 0.0 35.939998626708984" Properties=species:S:1:pos:R:3 i=0 time=0.0 E=-4192.6867006654 pbc="T T T"
H        8.73270512       6.65538263       8.68401051
H        8.95758343       8.25796127       8.51466179
H        5.04655886       8.33533955       8.01143742
H        6.70554829       7.92768240       7.96419096
H        2.01354933       2.29522562      17.60928345
H        2.55849385       2.68242168      19.02252579
H        7.41734982      11.13056374      10.88189983
H        6.91938257      10.65180969      12.28060436
H       10.77052021       4.15602589      28.13024521
H        9.63302422       3.91791534      27.16124916
H        9.72817802       5.20103407      25.31893158
H       11.14929104       5.89457798      24.79608345
H        1.29217696       8.35882282      17.60389519
H        0.45684850       9.46959209      16.88804626
H        5.36258936       0.96702993      13.26478767
H        5.69974184      10.99035645      14.25567818
H       10.61818695       4.19021320      23.13871956
H       10.65726471       4.73200130      21.65953064
H        5.27571249       4.78428555      27.61015511
H        6.20958185       3.95715952      28.63224220
H        2.11688018       9.27205849      11.69426727
H        3.15598464       9.52723408      12.75744057
H        3.99024296       1.65520084      23.66930389
H        3.73694873       2.51490235      22.67757034
H        0.59014165       6.52477789      28.78473282
H        0.83966327       5.61734724      27.58387566
H        1.81734598      11.11075878      16.61409760
H        1.06661975       0.40208375      15.28772545
H        1.41193497       5.43640041       9.47710705
H        0.68190616       6.42736959      10.36944485
H        7.52785254       3.70124555      23.03511238
H        6.13387203       3.14552379      23.36680222
H       10.48166275       9.00306892      26.82727242
H       10.64549923       7.35851860      27.20380211
H        3.89358616      11.23549175      29.05068016
H        4.47097683       0.39209008      27.64547729
H        0.87139660      10.17724705      27.85485458
H        2.43366027      10.70023632      28.08486938
H        6.33861303       7.81116581      10.36745262
H        6.32010698       9.23557377      10.96910858
H        4.49617434       8.60681438      10.11954021
H        3.83338642       7.39053202       9.66071415
H        2.03813148      10.76365852      20.52633095
H        1.37611270       0.71810716      19.64861870
H       10.51247406       6.75186300      20.51606560
H        0.16112104       5.82134199      19.78233910
H       11.06099796       9.17546082       7.97153378
H       10.23237324      10.47366619       7.91120291
H        8.93666840      10.94258404      15.07763863
H        8.96277809       9.44753361      14.49862862
H        0.64709282      10.94250202      22.28879547
H        1.62223208      10.59103298      23.46669769
H        0.70822555       3.79352450      18.46407509
H        0.73008567       5.13444567      17.52154541
H        1.02014315       6.06009769      15.02755642
H       10.80258656       6.55531979      14.59027958
H        0.39410529       1.34485877       8.23049831
H        1.43739533       1.92708039       7.33123827
H        2.10034204       4.54200125      15.92449665
H        2.74972439       5.78225851      16.76189995
H        5.26268387       5.10913467      14.50891876
H        3.74748969       4.99654388      14.53546715
H        8.72895527       0.79336548      19.72613144
H        7.54003143       1.58862913      19.23210526
H        8.63351345       8.98208046      11.47448349
H        8.96197796       8.02076340      10.37273407
H        4.56732893      10.91483784       7.42742491
H        5.85723591      10.16847897       7.51983738
H        4.24982166       1.49381959      11.53829002
H        4.27982044       2.94482875      12.20663452
H        1.41128898       7.00330019      21.32729721
H        2.07111049       7.70333862      22.43196869
H        5.78524876       1.70530391      15.00833225
H        6.09108639       3.02932858      15.58128262
H        7.05144215      10.68738842      18.29335785
H        6.16985559       9.75851059      17.34377861
H        2.96082282       3.33460903      21.01259232
H        3.96617937       4.42802858      20.14305496
H        5.06235504       1.46840596      17.27924347
H        5.40596056       1.11518908      18.85426140
H        6.34705496       4.41787100      10.37145042
H        5.73871756       5.08887291      11.69429588
H        8.02063465       3.12519264      12.28301716
H        9.20699310       3.71872807      13.15900707
H        5.73819447       6.67145634      16.39411545
H        6.92686462       5.84366322      15.81770992
H        2.09968281       1.78308618      13.03150177
H        0.81148821       2.35061812      13.83428860
H        2.29056716       8.55983734       8.84993649
H        2.07892036       8.25858307       7.24671078
H        6.46846581       8.84845352      22.88346672
H        7.14422655       8.10513973      21.67347908
H       10.05249405      10.88297462      23.73140526
H       10.56385708       1.04482627      24.38792038
H       10.34020901       9.25248718      23.29682732
H        8.70559025       9.36841393      22.73226547
H        4.29238081       8.87181568      14.83558273
H        2.70848012       8.68517590      15.04817295
H        9.46798992       1.94058681       7.27129030
H        9.39871216       1.19462299       8.62764931
H        5.65326834       7.45180798      24.60491943
H        6.37113619       8.37144279      25.64606667
H       11.16095924       0.77280837      12.76048183
H        9.82098770       0.03637940      13.30086517
H       11.18164635       4.53652954      14.04951096
H       10.59300041       3.57707047      15.05499268
H        5.75322008       5.39538050      23.60485268
H        4.31986666       5.57529020      24.11716652
H        8.79529953       7.50949812      16.16224861
H       10.23147202       8.19610214      16.07282448
H        7.80434465       4.03516531       8.62413502
H        6.41335535       3.06001663       8.72853947
H        0.72526753       7.71364117      25.11386681
H        1.74460173       6.63423634      24.63462448
H        6.63916969      10.58685493      27.12640190
H        6.30662298       0.81806701      26.80477715
H        7.93696928       2.14442992      10.17753029
H        8.98494720       1.19078302      10.99749470
H       10.42549896       5.03858423       8.99173450
H        9.82463741       4.70085144       7.64066267
H        0.99418688       3.22824717      22.16790962
H        1.71526897       1.80753577      21.94151497
H        9.09995937       2.16594267      28.22714043
H        8.22596645       0.78466511      28.61897659
H        7.50498343       3.33282590      20.89717102
H        8.93252563       3.80178261      21.50518036
H        7.84189129       8.39518738      18.05975914
H        9.12971783       8.60405636      18.90627861
H        5.05675030       2.60183191      20.17524147
H        5.74103928       1.45144165      21.04688072
H        0.66997445       2.54085851      25.91271591
H        0.10438360       3.41351557      24.89660645
H        6.83592701       0.62170392      23.22797966
H        6.70271540      10.74175167      22.24674797
H        4.05797863       7.58921051      17.17488861
H        4.40993500       6.67408514      18.38387108
H        8.31779385       8.98574829      27.48851013
H        7.45964384       8.78644085      28.80056000
H        2.92783213       8.75043201      27.59454536
H        4.07887936       8.44270992      26.62341309
H       11.04214859      10.28755856       9.73931694
H       11.02708626      11.10186768      11.01661301
H       11.10863400       8.19421864      11.80452347
H        0.59972334       7.26281309      12.83156586
H        6.17705870       7.94898462      14.57716274
H        6.00467682       8.22745323      13.10302925
H        2.10478926       2.25297022      15.16632748
H        3.62570310       2.61723733      15.63195801
H       10.38253689      10.83851624      26.12749290
H       10.15043354      11.23788166      27.62213326
H        2.88960743       5.28374147      28.72197151
H        3.48526192       6.48450422      27.83675957
H        3.38653708      10.95006466      10.83657169
H        2.61152744       0.87389201      10.08281231
H        3.82608271       2.55176044      25.53096199
H        4.82924080       2.93660140      26.61102295
H        7.71758461       3.97563052      25.41482162
H        7.56810617       4.36176777      26.93528366
H        3.50887942       9.47134113      19.40907097
H        2.85943627       8.63662434      20.81839752
H        2.56628346       3.35517120      10.28165817
H        3.78869677       4.27842093      10.25540257