387
Lattice="11.246000289916992 0.0 0.0 0.0 11.246000289916992 0.0 0.0 0.0 35.939998626708984" Properties=species:S:1:pos:R:3 i=0 time=0.0 E=-4192.6867006654 pbc="T T T"
H        0.00272643      -0.00151219      -0.00582659
H       -0.03708114       0.00718762       0.01729614
H        0.02171022       0.01481953      -0.00161532
H        0.00408633      -0.00806671      -0.02788777
H        0.02388261      -0.01064152      -0.01597735
H       -0.01872491      -0.01112094       0.02570110
H        0.00156088      -0.00212087      -0.02223918
H       -0.02809868       0.01401576       0.00481457
H       -0.00024832      -0.01154203       0.01706378
H       -0.00132893      -0.03704211      -0.00590999
H        0.00220652      -0.02315841       0.00293803
H        0.00189686      -0.00761470       0.01027591
H        0.03198852      -0.02903450       0.02173701
H       -0.00347174       0.00663271      -0.01142413
H       -0.00513949       0.02239060       0.00825071
H       -0.02255602       0.01495630      -0.01143537
H       -0.00066517      -0.00077444       0.02128623
H        0.00812770       0.00096248      -0.01746678
H        0.00003542       0.00990536      -0.02509631
H        0.00421039       0.00073243       0.00846249
H        0.01209813       0.01432007       0.00935019
H       -0.02647238      -0.00585727       0.05732579
H       -0.03754285       0.00270797      -0.01107738
H        0.00031101      -0.00206954      -0.07413576
H        0.00898993       0.01206850      -0.00991130
H        0.00482056      -0.02644534      -0.03812633
H        0.02403563       0.00114739      -0.01179374
H       -0.01536546       0.00993115      -0.01433207
H        0.01489993      -0.00610091      -0.03739811
H        0.00207543       0.00404618       0.03025763
H       -0.00444383       0.00275035       0.00566951
H        0.02378666       0.00016653      -0.04273053
H       -0.01523507       0.00502681       0.01383916
H       -0.01759928       0.00230175      -0.02204689
H       -0.01681283      -0.03176859       0.03493778
H        0.00735831      -0.06433635       0.02452656
H        0.01288910       0.00538756       0.01332460
H        0.00950979       0.02487977      -0.02043328
H        0.01153808      -0.01044331      -0.02910404
H       -0.01523371      -0.00830610      -0.01649997
H        0.02682313       0.00945600       0.04232801
H        0.02601022      -0.02968010       0.04850581
H       -0.00934327      -0.03433695      -0.01665174
H       -0.00555699       0.00702659       0.02307594
H        0.01855670      -0.01154099      -0.02614995
H       -0.01968824      -0.01911066       0.01372319
H        0.00580856       0.02403921       0.00490956
H       -0.00613137       0.05275931       0.00346061
H       -0.01286165      -0.00425116       0.00745879
H       -0.02227726      -0.03382516      -0.01630507
H       -0.02646577      -0.00129543      -0.01164971
H       -0.00545507       0.00533513       0.00229457
H        0.01981245      -0.00655490      -0.00161092
H       -0.01227412       0.00401471      -0.00928837
H        0.01231593      -0.00120934      -0.01115068
H        0.00525859      -0.02613119      -0.00235894
H        0.01617921       0.04685568      -0.01731154
H        0.00134369      -0.03379606      -0.02501809
H       -0.02300289       0.01517356       0.01329113
H       -0.00832750       0.02201892      -0.00464649
H        0.01969105      -0.00614007       0.00578033
H       -0.00301511       0.00179578       0.01165449
H       -0.00199534      -0.00511093      -0.00104628
H       -0.01545852      -0.00429408      -0.01624445
H        0.01636494       0.01782368      -0.02377907
H       -0.01200308       0.00494593      -0.00177205
H        0.03218014      -0.02129570      -0.02045854
H       -0.01114436       0.02962998      -0.03416133
H       -0.00314544       0.00929183      -0.02213000
H        0.01189047      -0.02516732      -0.00549693
H       -0.02490677       0.00115380       0.02874492
H       -0.01834151       0.01614439      -0.01424141
H        0.03448240       0.02291982       0.01922744
H        0.03323603       0.00605737      -0.01940617
H        0.04526542       0.00005373       0.03450069
H       -0.02586860      -0.00987768       0.01499262
H        0.01153929      -0.01346769      -0.01338212
H        0.02482389       0.03532760       0.01979891
H        0.02049047      -0.00480402       0.01414524
H       -0.02050407      -0.00647631       0.01406507
H        0.03783405      -0.03336202      -0.00999573
H        0.00582104      -0.00556111       0.03041203
H       -0.01124847      -0.00615826      -0.01262344
H        0.00390016       0.02391560       0.00502509
H        0.01556152      -0.01322097      -0.03972680
H       -0.00155240      -0.00429953      -0.02569213
H        0.01869841       0.00152974       0.02436625
H       -0.01182302       0.01342659      -0.01064984
H        0.01851780      -0.01774208      -0.00731612
H        0.04636086       0.01665987      -0.02028159
H        0.01130870       0.00887163       0.01526964
H       -0.01853607      -0.00878911       0.00296696
H        0.02268343       0.01276026      -0.05057705
H        0.01781539      -0.01988638      -0.00715375
H        0.01270682       0.02019192       0.01449690
H        0.00591276       0.01898922       0.02319916
H       -0.00548070      -0.00667186       0.01360537
H        0.00856011       0.03030289      -0.00152696
H       -0.01556905       0.02582935       0.00069396
H        0.02421988       0.00793384       0.03037630
H        0.00914097       0.01680358       0.01417692
H        0.00793269       0.01381986      -0.00873025
H        0.01561611       0.00328380      -0.00336459
H        0.01308426      -0.02335333      -0.00433677
H        0.00402085      -0.01291840       0.00479519
H       -0.00520116       0.01956399      -0.02514134
H       -0.00980511       0.00608804      -0.00089662
H       -0.00434486       0.00250132      -0.00283852
H        0.02456233       0.03026692       0.03884482
H       -0.00457662      -0.01779978       0.00688137
H       -0.00205288      -0.01689716      -0.00218052
H       -0.03211134      -0.03511217       0.01725471
H        0.01171443      -0.01499725      -0.00695769
H        0.01009606       0.00160073       0.00379523
H       -0.00153102      -0.00011517      -0.04073166
H        0.00700394       0.00162338       0.00964602
H        0.00890618      -0.02954766      -0.00059193
H        0.00794789      -0.03090230      -0.00035388
H       -0.02624444      -0.01927821      -0.03051934
H        0.00443959       0.00613082       0.01596952
H        0.00692373       0.03747889      -0.01362666
H        0.00833070       0.02239843       0.00535316
H        0.03293744       0.00541818       0.03359859
H       -0.01192205      -0.00542929       0.01221067
H       -0.00611751      -0.00236312       0.02399308
H        0.00489423       0.00730433       0.00399271
H        0.02310205       0.01310698      -0.02637851
H       -0.02866448       0.00387691      -0.00164476
H       -0.03353726      -0.00974590       0.02270187
H        0.00751283      -0.00472274      -0.00745253
H       -0.01539566       0.03699397       0.00820856
H       -0.02043981       0.02232147      -0.01274259
H        0.00144954      -0.01937089       0.00418556
H       -0.00845407       0.03678941      -0.00238082
H       -0.00393324      -0.00050819      -0.00187269
H       -0.01113085       0.02425399       0.00990884
H        0.01475989       0.02249022      -0.00918824
H       -0.00851639       0.03913007       0.01089919
H       -0.01777733       0.00169956      -0.00329082
H        0.00149878      -0.01660491      -0.00731837
H        0.01086744      -0.00112901      -0.01358864
H       -0.02311532      -0.02480619      -0.00611076
H        0.00355397      -0.02277252       0.00149482
H        0.01545598       0.00585815       0.00618174
H       -0.01854913      -0.00483168      -0.02065293
H        0.00385563       0.00950537      -0.01018314
H        0.01549982       0.01560139       0.02576229
H        0.02070628       0.01041250       0.00801536
H        0.00498033       0.00055823      -0.01506653
H       -0.02408826      -0.01172231       0.00934428
H       -0.01262105       0.00924817       0.00217267
H       -0.00268532      -0.02642430      -0.01055910
H        0.00052746      -0.00819143      -0.00613784
H        0.02375465       0.01775406      -0.00482315
H       -0.05536359      -0.00234454      -0.00098049
H       -0.02981750       0.02166935       0.00329603
H        0.00073552      -0.01555340       0.00989550
H        0.01729307      -0.00981680       0.02408501
H        0.01370963       0.00716274       0.03157998
H        0.02718097       0.00191505      -0.00694388
H       -0.01421337      -0.03248906       0.04309769
H        0.01095484      -0.01977276      -0.01011058
H       -0.00929310       0.01192694       0.01698308
H        0.01192248       0.01749586      -0.00123327
H        0.01196539       0.02958271      -0.01879378
H        0.00708709       0.01226751      -0.01500570
H       -0.01818005       0.02088973      -0.00585178
H        0.03282182      -0.00608910       0.00968643
H       -0.00931045      -0.01231845       0.00662345
H        0.01292928      -0.01140437      -0.00540620
H        0.02775190      -0.01763952       0.01416848
H       -0.01779862      -0.01939999      -0.01625182
H        0.02538168       0.01342862       0.01887099
H        0.01033624       0.01161780       0.01204560
H        0.01471719      -0.00333274      -0.02748245
H       -0.01348935      -0.01618831      -0.01098989
H       -0.00480163      -0.00609074      -0.01308119
H       -0.00875394      -0.00576870       0.02323890
H        0.00321125       0.00959795       0.00340922
H        0.00590592       0.00698068      -0.00664446
H        0.00688846      -0.02223393      -0.02333534
H        0.01672121      -0.00903237       0.02510962
H       -0.01346248       0.01591702       0.01301258
H        0.01244630      -0.02912951       0.01549605
H       -0.00196004       0.01451467       0.00101709
H        0.00319399      -0.02581654      -0.00478078
H        0.02029524      -0.00301765       0.01571297
H        0.00425420      -0.01272268      -0.00491958
H        0.02800257       0.00468208      -0.01265585
H       -0.01294122       0.01466877      -0.00666865
H       -0.01948230       0.00454773      -0.03596651
H       -0.01375499      -0.02317041      -0.00258061
H       -0.04440158      -0.00016400      -0.01000694
H        0.02045456       0.00558974       0.00341488
O        0.00363381       0.00206369       0.00677238
O       -0.00170806      -0.00013095       0.00640419
O        0.00073719      -0.00523752      -0.00242527
O        0.00061005      -0.00769048      -0.00273628
O        0.00037633       0.00487945       0.00131029
O        0.00194909      -0.00298964       0.00137696
O        0.00602393       0.00080725       0.00299108
O       -0.00272802      -0.00266735       0.00534255
O       -0.00486785       0.00000820      -0.00115825
O       -0.00854759      -0.00155607       0.00149574
O       -0.00409342       0.00143204      -0.00286370
O       -0.00048776       0.00227112      -0.00604903
O       -0.00690590      -0.00419588       0.01306711
O       -0.00179206      -0.00019126      -0.00030903
O        0.00233716      -0.00362119       0.00196820
O        0.00002954      -0.00319253      -0.00009355
O       -0.00425733      -0.00681253       0.00126900
O       -0.01414628      -0.00261211       0.00575690
O       -0.00343046      -0.00195597       0.00122142
O       -0.00167283      -0.00369314      -0.00165351
O        0.00039301       0.02685405       0.01457544
O        0.00137967      -0.00436150      -0.00292462
O        0.00087827      -0.00164065       0.00906400
O        0.00404826       0.00408179      -0.00364912
O        0.00645357       0.00249508       0.00339757
O       -0.00864411      -0.00107889      -0.00640005
O       -0.00451823      -0.00005726      -0.00117760
O        0.00169568      -0.00506230       0.00245432
O       -0.00139506      -0.00427756       0.00063685
O        0.00168293      -0.00007582      -0.00611633
O        0.00045128      -0.00706682       0.00384807
O       -0.00543689       0.00160478      -0.00543177
O        0.00501084       0.00475731       0.00016353
O       -0.00852238       0.00037094      -0.00612523
O        0.00542932      -0.00370011      -0.00193603
O       -0.00227602      -0.00062359      -0.00121635
O        0.00183674      -0.00310021      -0.00180068
O        0.00210463       0.00076670       0.00516204
O       -0.00141230       0.00380144       0.00344695
O       -0.00100059       0.00006421      -0.00026434
O        0.00077669      -0.00374191       0.00681918
O       -0.00276077       0.00661662      -0.00519261
O       -0.00786694      -0.00442903      -0.00196943
O       -0.00059641      -0.00616644       0.00752968
O       -0.00516960      -0.00304400      -0.00158925
O       -0.00107522       0.00481877      -0.00835016
O        0.00185746      -0.00497282      -0.00325563
O       -0.00275610      -0.00226253       0.00019005
O        0.00025108       0.00297112       0.00320248
O        0.00116316      -0.00048070      -0.00484115
O       -0.00681625      -0.00567089       0.00838543
O        0.00094986      -0.00513092      -0.00139949
O        0.00152758      -0.00170908       0.00329112
O        0.00233337       0.00569315      -0.00164445
O       -0.00194414       0.00312050       0.00124214
O       -0.00782390       0.00056750       0.00212951
O       -0.00371658      -0.00681800      -0.00280646
O       -0.00563854      -0.00236238       0.00358043
O       -0.00529390      -0.00543190       0.00239119
O       -0.00197049      -0.00296818       0.00698907
O       -0.00720469       0.01027266       0.00499225
O       -0.00178765       0.00227233       0.01115915
O       -0.00279724       0.00237669       0.00371942
O       -0.00248343      -0.00270357      -0.00574791
O       -0.01030179       0.00125159      -0.01019866
O       -0.00048545       0.00186013      -0.00648345
O        0.00105419       0.00842101       0.00502146
O       -0.00051718       0.00177748       0.00142952
O       -0.00638745      -0.00438441       0.01038260
O        0.00590255      -0.00089637       0.01012662
O       -0.00445739       0.00579195      -0.01231515
O       -0.00558090      -0.00571531       0.00577392
O       -0.00108186      -0.00019300      -0.00181153
O        0.00058354      -0.00447703      -0.00436013
O       -0.01081816      -0.00469551       0.00186461
O        0.00245035      -0.00614660      -0.00101996
O       -0.00068727      -0.00881965      -0.00108876
O       -0.02323275       0.01527450       0.00795707
O        0.00189661      -0.00328985       0.00443012
O       -0.00485855      -0.00614996      -0.00151798
O       -0.00954264      -0.01565740       0.01204864
O       -0.00051405      -0.00186880      -0.00116824
O       -0.00110006       0.00233189       0.00017221
O        0.00097088       0.00307335      -0.00178245
O       -0.00750280      -0.00452366       0.00365139
O       -0.00034491       0.00510537      -0.00168142
O       -0.00544207      -0.00047541      -0.00100967
O        0.00165761       0.00318313       0.00287265
O       -0.00300254       0.00274670       0.00209633
O       -0.00302980      -0.00522689      -0.00471614
O       -0.00041690       0.00322533       0.00613902
O       -0.00850329      -0.00122050       0.00623939
O       -0.00373653      -0.00028298      -0.00338972
O        0.00370739      -0.00785961      -0.01381876
O        0.01196064      -0.00364505      -0.00561739
O       -0.00235203       0.00458143       0.00092045
O       -0.00721884      -0.01551892      -0.02590524
Pt      -0.00026438      -0.00111028       0.00021413
Pt       0.00067587       0.00038189       0.00038501
Pt       0.00133584       0.00223675       0.00054013
Pt      -0.00063659      -0.00280334      -0.00118293
Pt      -0.00029465       0.00277143      -0.00084423
Pt       0.00023944      -0.00090810       0.00054526
Pt      -0.00044813      -0.00195476      -0.00074452
Pt       0.00003120      -0.00042483       0.00176335
Pt       0.00110115       0.00194476      -0.00082971
Pt      -0.00073497       0.00244785      -0.00064123
Pt       0.00075299      -0.00161606      -0.00061211
Pt      -0.00122363      -0.00180709       0.00091383
Pt      -0.00118020      -0.00083341      -0.00174553
Pt      -0.00048227       0.00049459      -0.00045801
Pt      -0.00084556      -0.00035811       0.00151504
Pt       0.00189185      -0.00143205      -0.00035953
Pt      -0.00223586       0.00013996       0.00138344
Pt       0.00072599       0.00072030       0.00100147
Pt      -0.00022144      -0.00045245       0.00115231
Pt      -0.00099913       0.00101554       0.00056308
Pt       0.00027749      -0.00080140      -0.00028193
Pt       0.00092139       0.00096714      -0.00048789
Pt       0.00066306       0.00110571       0.00032207
Pt      -0.00075019       0.00028395      -0.00125676
Pt       0.00057480      -0.00129878      -0.00070852
Pt      -0.00069616       0.00105927      -0.00158952
Pt      -0.00054239       0.00041459      -0.00148403
Pt      -0.00015472       0.00088104      -0.00071336
Pt       0.00050152       0.00002640       0.00010783
Pt       0.00238710      -0.00051926       0.00100647
Pt      -0.00191368       0.00168118      -0.00086385
Pt       0.00047298       0.00072804       0.00017957
Pt       0.00022596       0.00015207       0.00129946
Pt       0.00302962      -0.00069555      -0.00047103
Pt       0.00112937       0.00080058       0.00107676
Pt       0.00073017      -0.00053222       0.00013512
Pt       0.00010570       0.00022791       0.00023057
Pt      -0.00018634       0.00041273       0.00021818
Pt      -0.00046894       0.00084080      -0.00094607
Pt       0.00095810      -0.00097829      -0.00040943
Pt      -0.00001788       0.00297048       0.00002721
Pt      -0.00055237       0.00021496       0.00011929
Pt      -0.00158882      -0.00000995      -0.00132329
Pt      -0.00016914       0.00097225      -0.00105663
Pt      -0.00054618       0.00036585      -0.00014401
Pt       0.00001132      -0.00036876      -0.00111432
Pt      -0.00013564      -0.00063965       0.00145868
Pt       0.00026845       0.00014760      -0.00052430
Pt       0.00080030      -0.00112185       0.00083071
Pt       0.00138587      -0.00045804      -0.00077513
Pt       0.00026517       0.00010974       0.00116323
Pt       0.00062408      -0.00021619       0.00070123
Pt       0.00028318       0.00150771       0.00020898
Pt       0.00072433       0.00088482       0.00125329
Pt      -0.00085101       0.00099531       0.00143977
Pt       0.00018170      -0.00022812       0.00016920
Pt      -0.00125795      -0.00103575       0.00036823
Pt      -0.00101265      -0.00009878      -0.00026999
Pt       0.00121381       0.00112772       0.00036681
Pt      -0.00077109       0.00119879      -0.00041773
Pt       0.00003458      -0.00053083      -0.00036473
Pt       0.00025336      -0.00033307      -0.00142998
Pt      -0.00030651      -0.00005019      -0.00064519
Pt       0.00025602       0.00074987       0.00020333
Pt       0.00128008      -0.00113097      -0.00150030
Pt      -0.00073299       0.00004685      -0.00049127
Pt       0.00084423       0.00015110      -0.00001929
Pt       0.00258984      -0.00083031      -0.00027806
Pt       0.00040583      -0.00094841       0.00005688
Pt      -0.00021077      -0.00008326      -0.00156556
Pt      -0.00161647      -0.00007028      -0.00025727
Pt       0.00005332      -0.00030789       0.00000200
Pt       0.00155585      -0.00084473      -0.00042473
Pt       0.00008142      -0.00052454      -0.00065218
Pt      -0.00133025      -0.00134170       0.00162390
Pt      -0.00117394      -0.00068859      -0.00071414
Pt      -0.00259402      -0.00046286      -0.00005824
Pt      -0.00088309       0.00003094       0.00152856
Pt       0.00066571      -0.00048045       0.00151622
Pt      -0.00056244       0.00052298       0.00006246
Pt       0.00022354      -0.00166904       0.00138509
Pt       0.00063406      -0.00174729      -0.00117008
Pt       0.00178052       0.00018146       0.00067662
Pt       0.00236671       0.00156174       0.00054452
Pt      -0.00047044       0.00200036      -0.00010429
Pt       0.00045969      -0.00074746      -0.00019237
Pt      -0.00084094       0.00256610      -0.00137285
Pt      -0.00059317      -0.00034346       0.00114150
Pt       0.00043631       0.00086490      -0.00013483
Pt       0.00056561      -0.00100136       0.00072627
Pt       0.00285113       0.00191643      -0.00040147
Pt       0.00172609       0.00105852       0.00056175
Pt       0.00069151      -0.00091853      -0.00048727
Pt      -0.00022778       0.00101009      -0.00207908
Pt      -0.00028053      -0.00014418      -0.00016547
Pt       0.00283800      -0.00009259       0.00059798
387
Lattice="11.246000289916992 0.0 0.0 0.0 11.246000289916992 0.0 0.0 0.0 35.939998626708984" Properties=species:S:1:pos:R:3 i=0 time=0.0 E=-4192.6867006654 pbc="T T T"
H        0.01752564       0.00720246       0.03326181
H        0.01872186       0.00051829      -0.01894842
H       -0.02063692      -0.00340269      -0.00594578
H       -0.00897472       0.03070823       0.04999777
H       -0.02060832      -0.00851820      -0.00863304
H        0.01382242       0.00164406      -0.00651965
H       -0.00885839       0.00807301       0.03694775
H        0.01454369       0.00860252      -0.01074402
H        0.00526819       0.04745292       0.01370585
H        0.01531617       0.02774684       0.00959651
H        0.01944697      -0.01095014      -0.01308847
H        0.00399772       0.00511558      -0.00738196
H        0.02239662      -0.00925563      -0.01128988
H        0.02503005       0.00208808       0.03289001
H       -0.00811296      -0.01610206      -0.00088382
H        0.00984712      -0.01525772       0.03874398
H       -0.01149163      -0.00778232      -0.01476725
H        0.01743981       0.00145822       0.00356990
H       -0.00385648      -0.00126266      -0.00958150
H        0.00918427      -0.00077758      -0.00998580
H       -0.00175657      -0.03455907      -0.01914404
H       -0.01183420       0.03642806       0.02393528
H        0.03126242       0.00297354       0.00642197
H       -0.01329300       0.00844384       0.01148801
H       -0.01169131       0.01409060       0.00090430
H        0.02181818       0.02464379       0.02180391
H       -0.01997199       0.00347629      -0.00251299
H        0.03176849      -0.01287211      -0.01879275
H       -0.00467534      -0.02289974       0.01959068
H       -0.03136734      -0.00633043      -0.01476987
H       -0.01253651      -0.01875618      -0.03112028
H       -0.02306947       0.01128517      -0.04862104
H        0.00724561      -0.02606040      -0.00534351
H       -0.00139473      -0.00754304       0.02663184
H       -0.00133605       0.01605072       0.00770413
H       -0.00734136       0.01353447       0.04735110
H       -0.01221126       0.02582830      -0.01031727
H       -0.00566611       0.01438829      -0.05768565
H        0.00439822       0.01219918      -0.02134732
H        0.03735059       0.01269035      -0.00668740
H       -0.02764511      -0.02617452       0.02518922
H       -0.01617108       0.03373237       0.00047464
H       -0.00062616       0.01839987       0.00472555
H        0.01064176      -0.01962659      -0.00844081
H       -0.00982696       0.01612031       0.02395518
H        0.01299347       0.00170637      -0.02401809
H        0.00722051       0.00291990      -0.02839585
H        0.03991596      -0.02165762      -0.03092188
H        0.01420120      -0.00563908       0.01121969
H        0.02440205       0.01736494       0.02024314
H        0.00029965       0.01800038      -0.01717179
H        0.01804315       0.02086336      -0.00902477
H       -0.00458393      -0.00637139       0.00571910
H        0.00948414      -0.00676707       0.01211168
H       -0.01289989       0.00445585      -0.00910025
H       -0.00523343       0.01746606       0.00494938
H       -0.01747997      -0.02957339      -0.01278168
H        0.00340454       0.03770639       0.00135771
H        0.02918218      -0.00372572      -0.01355698
H       -0.01399375      -0.01189810       0.00181559
H        0.02225827       0.01580186       0.00343010
H        0.01547456       0.00956030       0.01203001
H       -0.01252898       0.01542948       0.01335718
H        0.00628971       0.00739780       0.02171374
H       -0.01118665      -0.00775657       0.01573629
H        0.01883271       0.00052809      -0.01014034
H       -0.02242153       0.01484045       0.01295969
H        0.01933617      -0.01219621       0.04637751
H        0.00695107       0.00426650      -0.00517868
H       -0.00198252      -0.01800655      -0.01101504
H       -0.00350149      -0.00856132      -0.00468397
H       -0.01413721      -0.01004601       0.02362262
H       -0.00953797      -0.01318776      -0.01290491
H       -0.01579300      -0.00416813       0.02682700
H        0.03532750      -0.00401727       0.01720183
H       -0.00145520      -0.01290285      -0.00240333
H       -0.01512547       0.01450363       0.02340642
H       -0.03972883       0.00733962       0.00796128
H       -0.01401382       0.00642923      -0.01438112
H        0.00146106       0.00130699      -0.01603654
H       -0.04318117       0.02231522       0.01979146
H       -0.02024319      -0.00012815      -0.00039631
H       -0.01738353       0.02607397      -0.00850030
H       -0.01519837       0.00936298      -0.01364426
H       -0.03541720       0.01918497       0.00823003
H       -0.00159066      -0.00458505      -0.00738162
H       -0.02014739       0.00331114       0.00569062
H        0.00500918      -0.02891603       0.00528906
H       -0.00966231      -0.00635085      -0.00566545
H        0.02984911      -0.01313750      -0.00014756
H        0.00540232      -0.03577241      -0.02220462
H        0.00626890      -0.02684245      -0.00262270
H        0.01600190       0.01006261       0.01920615
H        0.02493059      -0.01049115      -0.02811709
H       -0.01170788      -0.03089824       0.00328165
H       -0.01887464       0.01949404      -0.01606955
H       -0.00156045       0.00433755      -0.01274056
H       -0.00087910       0.00029648       0.00653206
H        0.00263456      -0.01115169       0.01220376
H       -0.02339600      -0.01235185      -0.01870192
H       -0.01831845      -0.00174269      -0.00375546
H       -0.01122903      -0.00330327       0.00784236
H       -0.00012387       0.00477918       0.03571902
H        0.00779377      -0.00601753      -0.00715376
H        0.00179553      -0.00841138       0.01578457
H        0.01715697       0.01487553       0.02691826
H        0.01872878       0.00904918      -0.03534218
H        0.01350983      -0.00119157       0.00817691
H        0.02810268      -0.00739208       0.03504360
H       -0.02183486      -0.00310695       0.02410272
H        0.00852419       0.00034298       0.01909413
H       -0.03265225       0.02537768       0.01158547
H        0.01136938      -0.00897458       0.01966269
H        0.01136808      -0.00922945      -0.00671416
H       -0.01119580      -0.02095418       0.00316112
H       -0.00670400       0.00987047       0.00830500
H        0.00426271       0.01664897      -0.00132533
H       -0.01367472       0.00302317       0.01556018
H        0.03633251       0.00823761       0.00437173
H        0.00085598       0.00478894       0.01496149
H       -0.01825243       0.01828493       0.02397545
H        0.01560657      -0.00461843       0.00687464
H        0.01041278      -0.02103194      -0.01498883
H        0.00188255      -0.02535986      -0.00545556
H        0.01304392      -0.00957334       0.00927746
H       -0.00949937      -0.03875248      -0.00054175
H       -0.00249323      -0.00397079       0.02914877
H        0.00237541       0.01580799      -0.03276767
H        0.00271296       0.00258907      -0.01252795
H       -0.01165319      -0.01444998      -0.01396778
H        0.02243709      -0.00117353      -0.02443778
H        0.04035660       0.00982372       0.02555322
H       -0.00141079       0.00163576       0.00187530
H        0.02303092       0.00600027      -0.01556194
H       -0.01202255       0.02433267       0.01097950
H       -0.00397652      -0.00340968      -0.01085787
H       -0.00121887      -0.01061617      -0.00470235
H       -0.00039454      -0.03160566       0.01010831
H        0.02145908       0.02147055      -0.00406299
H        0.02373320       0.03181433       0.01160060
H       -0.00380186      -0.01002144      -0.00287565
H       -0.00623978       0.01199846      -0.01730554
H        0.00305980      -0.00062507       0.00273077
H       -0.03712014      -0.01783634       0.02485866
H        0.01842369       0.00470145       0.00893069
H       -0.01870985      -0.01812918       0.01469238
H       -0.00645358      -0.04388973      -0.00779586
H        0.01236736       0.00306742       0.00741973
H        0.00737907       0.01690265       0.01897400
H        0.00057215       0.01643706       0.00940454
H        0.00479970      -0.02418438      -0.01238968
H       -0.00401896       0.01965641       0.02231591
H        0.01781669       0.00135233       0.00728641
H        0.01268294       0.01266247      -0.00095959
H        0.02370074       0.03236519      -0.00221275
H        0.00953639      -0.00657607      -0.03106803
H        0.00182451       0.00803514      -0.02054664
H       -0.01098385       0.01767785       0.00516032
H        0.02210800       0.00147637      -0.02391457
H       -0.00598304      -0.01422363       0.01319912
H       -0.00356448      -0.01659777       0.01702643
H       -0.02913759      -0.01531508       0.02888745