387
Lattice="11.246 0.0 0.0 0.0 11.246 0.0 0.0 0.0 35.94" Properties=species:S:1:pos:R:3 i=0 time=0.0 E=-4192.6867006654 pbc="T T T"
H        8.56863000       6.52347000       8.30568000
H        9.01854000       8.03948000       8.25644000
H        5.10389000       7.94092000       7.74199000
H        6.78154000       7.82165000       7.74446000
H        1.86765000       2.51709000      17.65605000
H        2.64587000       2.69398000      18.97789000
H        7.59020000      11.48417000      11.24355000
H        7.46609000      10.53182000      12.49052000
H       10.82636000       3.79275000      27.88451000
H        9.35987000       4.06296000      27.30175000
H        9.72308000       5.65855000      25.23387000
H       11.09436000       6.05237000      24.61160000
H       -0.06847000       8.97056000      17.49168000
H        0.59878000       9.39436000      16.23364000
H        5.50636000       0.50966000      13.02064000
H        6.35589000      -0.21963000      14.04803000
H       10.64652000       4.35330000      23.10850000
H       11.01124000       4.70124000      21.65160000
H        5.61664000       4.70114000      28.14316000
H        6.67222000       3.74783000      28.47460000
H        2.50850000       9.04563000      11.64131000
H        4.06797000       9.11234000      11.32757000
H        4.64351000       1.48530000      23.99299000
H        3.53234000       2.32620000      23.20634000
H       -0.00157000       6.38644000      28.48353000
H        1.40802000       6.35271000      27.94546000
H        1.60932000      -0.27444000      16.92218000
H        1.51069000       0.29935000      15.41429000
H        1.36263000       5.70230000       9.76297000
H        0.32325000       6.76613000      10.21450000
H        7.45973000       3.67546000      23.02789000
H        5.92727000       3.44140000      23.56723000
H       10.73906000       9.26916000      26.83523000
H       11.08280000       7.60668000      27.04846000
H        5.14544000       0.30168000      27.79219000
H        4.05046000       1.18376000      27.10267000
H        1.09646000      10.27297000      27.74788000
H        2.60124000      10.70441000      28.48231000
H        6.28274000       7.81457000      11.14965000
H        6.26565000       9.38017000      11.03552000
H        4.49146000       7.57768000       9.56711000
H        3.53773000       6.38861000       9.11297000
H        1.85947000      -0.38661000      20.26008000
H        1.38615000       1.04442000      19.77935000
H       10.40525000       6.75319000      20.50794000
H       11.27209000       5.73468000      19.51732000
H       10.98212000       9.19523000       8.47542000
H        9.87418000       9.76792000       7.47346000
H        8.68121000      10.97648000      14.95235000
H        8.97682000       9.51031000      14.55993000
H        1.30679000      11.10256000      22.67565000
H        2.08490000      10.42643000      23.79862000
H        0.97904000       4.06911000      18.86443000
H        0.92667000       5.03275000      17.53270000
H        0.91138000       6.29508000      14.96562000
H       -0.52233000       6.84392000      14.60938000
H        0.59147000       1.28756000       8.66456000
H        1.11620000       2.48114000       7.76296000
H        2.22387000       4.40402000      16.11161000
H        2.81162000       5.72778000      16.86709000
H        4.90489000       5.43625000      14.62496000
H        3.54942000       5.01921000      14.06810000
H        9.08290000       0.53432000      19.70921000
H        7.86273000       1.52278000      19.68753000
H        8.65875000       8.93598000      11.53673000
H        8.78598000       7.87107000      10.36851000
H        4.81297000      11.12667000       7.75659000
H        5.93503000       9.98339000       7.42520000
H        3.95840000       1.82231000      11.60582000
H        4.12317000       3.11059000      12.57648000
H        1.68500000       7.08049000      21.07956000
H        2.27023000       7.29231000      22.56507000
H        5.31167000       1.73631000      14.89171000
H        5.84029000       3.06138000      15.83030000
H        6.11646000      10.37878000      17.26769000
H        7.18601000       9.71402000      16.57556000
H        3.18751000       3.05703000      20.98414000
H        4.05117000       4.18376000      20.14361000
H        5.24024000       1.53302000      17.25722000
H        5.60498000       1.14168000      18.76018000
H        6.16207000       4.45090000      10.00394000
H        5.99419000       5.33498000      11.27261000
H        7.93645000       2.72180000      12.79291000
H        9.26841000       3.20439000      13.38180000
H        6.06136000       7.04548000      16.52281000
H        6.90179000       5.93459000      15.91294000
H        2.26995000       2.01894000      12.93492000
H        0.80175000       2.58463000      13.47555000
H        2.46449000       8.65908000       8.61170000
H        1.54703000       7.83272000       7.81050000
H        7.00153000       8.63289000      23.37088000
H        7.07856000       7.93972000      21.92034000
H        9.82160000      -0.38313000      24.12490000
H       10.56059000       1.00764000      24.55583000
H       10.38635000       9.04855000      22.88790000
H        8.86994000       9.28133000      22.89095000
H        4.29400000       8.76379000      14.74690000
H        3.03698000       7.88857000      15.01781000
H        9.98020000       1.32294000       7.01429000
H        8.80421000       1.14679000       8.09038000
H        5.57650000       7.51467000      24.44779000
H        6.43528000       8.54506000      25.36087000
H       11.06373000       1.02395000      13.00999000
H        9.81530000       0.07662000      13.10572000
H       11.02564000       4.63700000      13.87897000
H       10.62069000       3.65502000      14.98115000
H        5.85957000       5.43069000      23.75777000
H        4.44598000       5.33090000      24.47536000
H        8.68412000       7.31909000      15.41923000
H       10.14217000       8.01785000      16.05503000
H        8.45315000       4.00320000       8.62766000
H        7.19502000       3.22240000       8.21849000
H        0.55953000       7.99034000      25.02650000
H        1.66438000       6.82676000      24.91591000
H        7.02541000      -0.67031000      27.37687000
H        6.90578000       0.74976000      26.57742000
H        7.95509000       2.38676000       9.99801000
H        9.14960000       1.92709000      10.93533000
H       10.59126000       5.37892000       8.77198000
H        9.74968000       4.77608000       7.37502000
H        1.39582000       2.85986000      22.18057000
H        1.87430000       1.51717000      21.56284000
H        9.37216000       2.06249000      27.68727000
H        8.33247000       0.93036000      27.87671000
H        7.79536000       3.35225000      20.49152000
H        9.05533000       3.89192000      21.32366000
H        7.90730000       8.49170000      18.47488000
H        9.42632000       8.53850000      18.88923000
H        5.47887000       2.34735000      20.41258000
H        6.14522000       1.13994000      21.16367000
H        0.53465000       1.84953000      26.15106000
H        0.09483000       3.35368000      25.58683000
H        6.58336000      11.54275000      23.16299000
H        6.64602000      10.29492000      22.17972000
H        3.99253000       7.47767000      17.30835000
H        4.48005000       6.29890000      18.32310000
H        8.61625000       8.67297000      27.07037000
H        7.47994000       8.13250000      27.93725000
H        2.89979000       8.82954000      27.52377000
H        3.52738000       8.49107000      26.07802000
H       -0.44749000      10.74526000      10.02620000
H       -0.07156000      11.32484000      11.40766000
H        0.50918000       8.88351000      11.77176000
H        0.63291000       7.62936000      12.57876000
H        6.25665000       8.11553000      14.88421000
H        5.90080000       8.00250000      13.36098000
H        2.18640000       2.44957000      15.00230000
H        3.47636000       2.84333000      15.77593000
H       10.72343000      11.21067000      26.15451000
H       10.62130000      11.26108000      27.64322000
H        3.25766000       5.62500000      28.80870000
H        3.52565000       6.66305000      27.57688000
H        3.37245000      -0.06484000      10.83787000
H        2.57056000       1.05086000      10.27473000
H        5.42571000       1.64221000      24.97153000
H        6.21886000       2.05593000      26.31642000
H        7.83624000       3.99080000      25.23510000
H        7.40396000       4.38900000      26.60515000
H        3.31252000       9.55063000      19.40452000
H        3.09784000       8.86546000      20.79979000
H        3.42491000       4.25010000       8.75397000
H        4.01639000       4.88377000      10.01774000
H        2.41884000       4.20840000      25.09008000
H        2.88485000       5.06646000      26.26650000
H        4.14485000      10.47025000      24.94472000
H        4.29177000      10.30988000      23.36622000
H        9.07714000       0.66901000      17.23937000
H       10.48656000       0.63021000      16.39761000
H        7.55886000       5.59707000      12.42028000
H        8.17693000       6.97962000      11.79987000
H        2.40375000       2.74446000      27.50455000
H        1.62167000       2.69474000      28.89609000
H        9.58131000       2.78166000      16.73505000
H       10.25244000       4.03581000      17.48238000
H        4.56784000       2.71542000       7.24883000
H        4.95484000       2.13410000       8.68393000
H        7.74833000       4.01169000      14.54048000
H        8.32587000       4.07139000      15.98301000
H        2.50006000      11.87262000       7.79324000
H        2.32450000      10.36621000       7.62297000
H       10.70753000      10.23805000      20.33691000
H        9.50044000       9.58090000      20.78342000
H        4.24276000       6.48204000      20.58904000
H        5.74566000       6.30280000      20.14980000
H        3.40846000       9.88891000      16.84369000
H        3.96289000      10.95835000      17.90284000
H        7.23889000       2.19316000      24.84933000
H        8.35688000       1.08167000      25.05014000
H        7.52505000       5.85517000      20.94170000
H        7.84167000       7.18986000      20.18402000
H        8.38700000       6.87505000      28.27175000
H        9.50499000       5.76356000      28.47257000
H        3.91869000       5.28105000       7.81071000
H        4.23531000       6.61574000       7.05303000
O        8.18336000       7.44568000       8.42622000
O        5.99053000       8.36555000       7.38235000
O        1.73563000       2.50783000      18.63490000
O        7.25288000      10.59960000      11.52913000
O        9.86915000       3.64198000      28.02452000
O       10.43100000       5.33091000      24.64036000
O        0.44197000       8.55479000      16.75793000
O        6.21767000       0.66205000      13.68579000
O       10.94398000       3.91242000      22.21867000
O        6.14126000       4.01451000      27.66822000
O        3.31618000       9.54425000      11.80993000
O        4.40460000       2.38199000      23.77845000
O        0.47988000       6.20021000      27.65061000
O        0.98131000       0.09253000      16.23136000
O        0.56000000       6.17277000       9.43201000
O        6.88318000       3.68827000      23.78998000
O       10.57249000       8.29352000      26.49847000
O        4.17748000       0.51101000      27.85842000
O        1.91195000       9.99439000      28.30295000
O        5.67786000       8.55332000      10.94410000
O        3.77744000       7.37321000       8.94005000
O        1.37494000       0.42169000      20.54480000
O       11.20162000       6.22170000      20.43023000
O       10.03904000       9.22627000       8.33146000
O        8.58480000      10.37792000      14.17181000
O        1.19920000      10.38832000      23.34965000
O        0.46040000       4.82228000      18.43439000
O        0.27788000       6.37065000      14.20835000
O        1.34917000       1.74524000       8.34704000
O        1.98635000       5.40787000      16.34960000
O        4.45705000       5.18755000      13.75848000
O        8.76522000       1.38335000      19.31678000
O        9.07022000       8.09158000      11.28581000
O        5.82242000      11.03490000       7.51934000
O        3.92062000       2.16812000      12.57108000
O        2.49803000       7.18435000      21.63402000
O        5.10684000       2.37907000      15.66931000
O        6.89108000       9.86892000      17.50905000
O        3.79515000       3.19742000      20.17827000
O        5.25388000       0.82199000      17.90452000
O        5.46363000       4.72794000      10.70675000
O        8.42856000       3.55687000      13.03912000
O        6.89414000       6.94586000      16.07167000
O        1.42610000       1.76581000      13.43791000
O        1.61813000       8.74334000       8.18353000
O        7.33672000       8.72650000      22.42233000
O        9.86995000       0.34745000      24.80218000
O        9.71948000       9.78105000      22.78833000
O        3.52735000       8.61419000      15.39314000
O        9.80294000       1.17411000       7.97608000
O        6.04080000       8.42137000      24.47925000
O       10.16687000       0.85874000      12.65181000
O       10.86705000       3.68080000      14.04091000
O        5.02037000       5.90173000      23.88115000
O        9.51877000       7.77616000      15.29726000
O        7.59302000       3.63591000       9.01867000
O        1.21954000       7.56501000      24.43982000
O        6.92058000       0.26811000      27.45422000
O        8.27135000       1.62138000      10.61656000
O        9.66878000       5.02972000       8.34135000
O        2.19105000       2.27340000      22.16050000
O        9.26871000       1.13353000      28.08017000
O        8.09306000       4.02470000      21.10545000
O        8.70221000       7.89279000      18.70451000
O        6.30246000       1.85830000      20.48739000
O        0.12454000       2.35647000      25.44945000
O        6.22091000      11.18720000      22.34812000
O        4.30118000       6.55285000      17.36230000
O        7.68581000       8.90910000      27.35247000
O        3.50977000       8.23270000      27.04347000
O        0.31632000      10.87875000      10.61506000
O        0.90628000       8.00421000      11.74272000
O        5.90415000       8.63233000      14.11860000
O        2.45867000       2.86381000      15.86669000
O       11.17394000      10.92056000      26.95123000
O        3.05689000       5.80536000      27.86694000
O        3.46344000       0.74797000      10.32130000
O        5.44644000       1.56947000      25.94708000
O        8.21024000       4.45721000      25.99149000
O        3.14690000       9.76788000      20.32699000
O        3.23041000       4.93637000       9.44860000
O        2.86707000       5.02742000      25.27424000
O        3.80706000      10.79255000      24.08806000
O        9.50962000       0.97479000      16.37562000
O        7.32278000       6.48529000      12.06488000
O        1.49686000       2.49265000      27.93034000
O        9.83345000       3.69775000      16.68679000
O        4.89977000       2.94311000       8.10686000
O        7.43497000       4.23856000      15.44268000
O        3.00796000      11.05636000       7.46244000
O        9.89363000       9.89282000      19.93452000
O        4.84434000       6.00913000      19.95336000
O        3.23700000      10.33733000      17.67806000
O        7.37370000       1.21622000      25.08662000
O        7.14927000       6.73131000      20.74895000
O        8.52181000       5.89810000      28.50904000
O        3.54291000       6.15719000       7.61796000
Pt       0.08537000      -0.01946000       5.08748000
Pt       2.88741000       0.07380000       5.09128000
Pt       5.71013000       0.05010000       5.14125000
Pt       8.54510000       0.20121000       5.20570000
Pt      -0.12890000       2.82324000       5.20426000
Pt       2.68251000       2.87011000       5.13670000
Pt       5.63730000       2.96125000       5.07268000
Pt       8.43429000       2.93614000       5.03717000
Pt      -0.22026000       5.64012000       5.10414000
Pt       2.78000000       5.63559000       5.07773000
Pt       5.54279000       5.70851000       5.19557000
Pt       8.34269000       5.73031000       5.07118000
Pt      -0.05855000       8.41983000       5.15770000
Pt       2.80995000       8.42057000       5.16316000
Pt       5.57148000       8.43041000       5.00454000
Pt       8.32497000       8.55634000       5.08943000
Pt       1.40560000       1.40560000       3.05641000
Pt       4.21710000       1.40560000       3.05641000
Pt       7.02857000       1.40560000       3.05642000
Pt       9.84007000       1.40560000       3.05640000
Pt       1.40560000       4.21710000       3.05641000
Pt       4.21710000       4.21710000       3.05642000
Pt       7.02857000       4.21710000       3.05643000
Pt       9.84007000       4.21710000       3.05641000
Pt       1.40560000       7.02857000       3.05642000
Pt       4.21710000       7.02857000       3.05643000
Pt       7.02856000       7.02856000       3.05643000
Pt       9.84007000       7.02857000       3.05641000
Pt       1.40560000       9.84007000       3.05640000
Pt       4.21710000       9.84007000       3.05641000
Pt       7.02857000       9.84007000       3.05641000
Pt       9.84007000       9.84007000       3.05640000
Pt      -0.00014000      -0.00014000       1.02525000
Pt       2.81138000      -0.00014000       1.02526000
Pt       5.62286000      -0.00014000       1.02525000
Pt       8.43433000      -0.00014000       1.02526000
Pt      -0.00014000       2.81138000       1.02526000
Pt       2.81138000       2.81138000       1.02527000
Pt       5.62286000       2.81138000       1.02526000
Pt       8.43433000       2.81138000       1.02527000
Pt      -0.00014000       5.62286000       1.02525000
Pt       2.81138000       5.62286000       1.02526000
Pt       5.62286000       5.62286000       1.02526000
Pt       8.43433000       5.62286000       1.02526000
Pt      -0.00014000       8.43433000       1.02526000
Pt       2.81138000       8.43433000       1.02527000
Pt       5.62286000       8.43433000       1.02526000
Pt       8.43433000       8.43433000       1.02527000
Pt       1.40566000       1.40566000      34.91474000
Pt       4.21716000       1.40566000      34.91474000
Pt       7.02863000       1.40566000      34.91473000
Pt       9.84013000       1.40566000      34.91474000
Pt       1.40566000       4.21716000      34.91474000
Pt       4.21716000       4.21716000      34.91474000
Pt       7.02863000       4.21716000      34.91473000
Pt       9.84013000       4.21716000      34.91474000
Pt       1.40566000       7.02863000      34.91473000
Pt       4.21716000       7.02863000      34.91473000
Pt       7.02863000       7.02863000      34.91473000
Pt       9.84013000       7.02863000      34.91474000
Pt       1.40566000       9.84013000      34.91474000
Pt       4.21716000       9.84013000      34.91474000
Pt       7.02863000       9.84013000      34.91474000
Pt       9.84013000       9.84013000      34.91475000
Pt      -0.00009000      -0.00009000      32.88361000
Pt       2.81145000      -0.00009000      32.88360000
Pt       5.62291000      -0.00009000      32.88359000
Pt       8.43438000      -0.00009000      32.88360000
Pt      -0.00009000       2.81145000      32.88360000
Pt       2.81145000       2.81145000      32.88358000
Pt       5.62291000       2.81145000      32.88357000
Pt       8.43438000       2.81145000      32.88358000
Pt      -0.00009000       5.62291000      32.88359000
Pt       2.81145000       5.62291000      32.88357000
Pt       5.62291000       5.62291000      32.88357000
Pt       8.43438000       5.62291000      32.88357000
Pt      -0.00009000       8.43438000      32.88360000
Pt       2.81145000       8.43438000      32.88358000
Pt       5.62291000       8.43438000      32.88357000
Pt       8.43438000       8.43438000      32.88358000
Pt       1.44093000       1.46497000      30.79478000
Pt       4.34128000       1.37919000      30.78830000
Pt       7.03672000       1.17407000      30.78659000
Pt       9.96022000       1.18291000      30.74525000
Pt       1.47501000       4.18030000      30.84524000
Pt       4.36154000       4.15908000      30.76148000
Pt       7.15496000       3.92937000      30.82113000
Pt       9.95280000       4.16908000      30.75993000
Pt       1.42011000       6.94594000      30.82085000
Pt       4.24573000       6.91017000      30.76997000
Pt       6.96078000       6.80493000      30.91288000
Pt       9.81427000       6.85870000      30.70245000
Pt       1.42974000       9.81554000      30.84724000
Pt       4.26217000       9.63598000      30.89031000
Pt       6.99387000       9.63769000      30.80327000
Pt       9.69963000       9.63654000      30.78121000
