     906
 i = 14650050, time =  7325024.998, E =     -9637.5919146914
  O        31.3634930911       -9.0257454299       11.1742052640
  H        31.2465261441       -9.5836682132       10.3051011639
  H        30.6389276777       -8.4394261304       11.0553067483
  O        73.2916554123        7.3148288244       32.1507184750
  H        73.5629743651        7.4514102018       33.0786360674
  H        74.0529246068        6.7721569107       31.7207587473
  O        19.2174639642      -46.4823267512       21.9801190386
  H        18.5134453889      -45.8138641670       21.7601558921
  H        19.9693662269      -46.2598183079       21.3343258850
  O        53.5036261537        1.0200595959       29.9615415826
  H        53.5239624446        1.7494078535       30.6515345800
  H        52.9244713796        0.3018356117       30.2502245396
  O        35.4277994623      -47.7892321176       33.6680189273
  H        35.7848488726      -46.8682396878       33.6348458681
  H        36.0883974388      -48.3452634309       33.2565215785
  O        36.7677714349        6.9478025533       30.3769632275
  H        35.8201180193        6.8778254166       30.2561987169
  H        37.1188336587        6.2222468328       31.0440245597
  O        -4.2338952956      -42.8166296335       24.0539871290
  H        -4.0419617455      -42.1813187920       23.3483787230
  H        -5.0699441553      -42.4881634837       24.5014290313
  O        44.9243318178       31.4147857496       13.0995911043
  H        44.4031093425       31.9119367439       12.3969963276
  H        54.2513488932       17.1914837226       13.2100430512
  O       -63.9145203735      -45.7583334810       33.2767557678
  H       -63.8083756612      -44.8141548908       32.9136699206
  H       -63.1265980854      -46.3192976469       33.0244128013
  O         7.0571918509      -15.5419555207       29.9942787660
  H         6.7842969614      -14.7110065489       29.5085291580
  H         6.3055156273      -16.1142417592       30.0428460439
  O        45.7756716063       37.4337607141       18.4327781225
  H        46.5735375985       37.9058548228       18.0969740649
  H        45.1082142342       38.1568530831       18.2578821027
  O        27.2140980686      -85.7730162320       31.6707177581
  H        26.5925671696      -86.5383348706       31.5485939715
  H        27.7503737916      -85.5264024018       30.9018471435
  O        -1.5292703560      -11.9601221919       32.3465618679
  H        -1.3052861538      -12.3434336935       31.5062896659
  H        -1.2859520957      -12.6352726482       33.0168250529
  O        35.9868143070       18.8960007152        9.1580621970
  H        35.0710460645       18.7705302283        8.8018542771
  H        36.2449072659       19.9123567007        9.3269963059
  O         3.9724252421      -30.0224911130       32.2736969401
  H         4.3237607822      -29.1375784822       32.2835032666
  H         3.0886428203      -29.8298618409       32.7778936790
  O         0.4960767676        7.6162348695       27.0702074310
  H         0.2306237252        8.2981228273       26.3602691703
  H         1.1452777328        7.0489742043       26.6135497341
  O         6.1412255459       18.0487343131        8.7536693523
  H         5.4544045938       18.5885198184        9.2413599170
  H         5.8286823253       17.8072069271        7.7815197626
  O         2.4938141413      -18.4348859756       10.0620655883
  H         2.3532816650      -18.1263988169       10.9809532735
  H         1.5874322145      -18.5961695818        9.7929279780
  O       -12.8661765061        2.1917306017       32.4590531605
  H       -11.8847430531        2.2704289238       32.3118207747
  H       -12.8736007598        2.2485501666       33.5227732768
  O        14.5230663275       12.8852878140       33.3177554822
  H        13.5110998510       13.1723065583       32.9513454028
  H        15.0778716032       13.7036018630       33.2849959100
  O       -22.4259131886       18.7035859580        9.0577204184
  H       -23.3090918781       18.3051609148        9.1019394103
  H        -5.3940407783       18.6464612552        8.1022312621
  O       100.6759496092      -37.0700729860       20.9346441335
  H        99.9191437768      -36.9242300706       21.4547783834
  H       117.7799583688      -36.1094504384       20.7690571343
  O       -17.2239908083       37.9984970115       12.0836161030
  H       -25.9529385996       52.7067897661       11.1668048194
  H       -17.3650717220       36.9817959866       12.1559242804
  O        25.4488389740      -19.7199922224       20.4971420416
  H        25.6674542969      -19.5976557814       21.4870752336
  H        26.0712975266      -19.4071510388       19.8287807316
  O       -46.4590487609      -55.2224949216       15.1164569586
  H       -46.1186919779      -55.4269558219       14.2063101436
  H       -45.8262757603      -55.7651005424       15.6714287424
  O       -13.5441296521      -15.7492756193       16.0175562443
  H       -14.3129724537      -15.3319304767       15.6080496920
  H       -12.6847734369      -15.4929154454       15.5726297077
  O       -22.0225086033      -58.6544762315       11.7470684561
  H       -22.2263283211      -57.7884513587       12.1609569645
  H       -21.9737363470      -58.4101165805       10.7688630587
  O        85.0210660336      -42.7586944487        8.7277741698
  H        85.1083125204      -42.4123376600        7.7829481668
  H        85.9858343084      -42.7342707971        8.9828586394
  O         0.5137726626       53.7855670668       11.6736658135
  H         1.0467142531       53.6886734549       12.5742878231
  H         0.6788413068       54.7884875171       11.2656643809
  O        11.8949171825      -52.6395103278       19.5598069174
  H        -5.5349643689      -52.5291230915       20.3605238699
  H        12.1584266497      -51.8055943739       19.1986936135
  O       -28.3182073302      -13.2439523626       20.8213089617
  H       -28.4918347383      -12.2596768232       20.6441687689
  H       -28.6935649451      -13.6895006176       19.9641930250
  O        16.1862781811       58.1390205268       21.4586102106
  H        15.5927727007       58.9588645552       21.3785710629
  H        15.7396262162       57.2954572167       21.7096304892
  O       -19.7921088617      -14.5058098321       29.2204049694
  H       -19.6700883484      -15.4112896554       29.4073254851
  H       -20.7102505495      -14.2938923934       29.5738717477
  O        -9.8721817644      -27.1014513135       29.7897209744
  H       -10.2564286991      -27.9537052956       29.4097643100
  H        -9.0244878724      -26.9998318039       29.2564594691
  O        53.6672151745        5.9469402492       20.1545992057
  H        54.1309946779        6.6134969266       20.7094478163
  H        36.8716001883        6.3193728028       19.2364540620
  O        28.7338035283        4.8193920995       25.9809573223
  H        28.5726582775        3.8490482778       25.6796839123
  H        29.7043131306        4.8674638415       25.8401737595
  O        16.8562441899      -37.4019756552       11.9120800154
  H        16.0068513377      -37.9434447985       11.8484288169
  H        17.0923548888      -37.0112123145       12.7688096373
  O        -0.7086881383       -8.3842208849       30.7325376170
  H        -1.1091947265       -8.8246865146       29.9748268170
  H        -0.1136083595       -9.0278530251       31.2591210667
  O        30.4953221681       -7.1827154761       28.6296396438
  H        30.9253344194       -7.8291439914       28.0502017574
  H        29.6980135721       -7.6575831319       29.0416111745
  O        17.7968845372       36.7715111479       16.0983234295
  H        17.7822436555       37.6298924486       16.6187006850
  H        16.9648357673       36.2867383252       16.1525668600
  O        15.5935650046      -28.1817344474        9.6484436330
  H        15.1114165298      -27.3947016676        9.4516171391
  H        15.7856579067      -28.1503228108       10.6164299271
  O       -45.8175371075       17.2536122401       17.5741157340
  H       -55.2787399072       31.7587150333       17.5626712728
  H       -45.6278094156       17.5936293772       18.5069731593
  O        17.9509942478      -54.0502316275       12.9338362815
  H        18.4749517140      -54.7619496532       12.4758919350
  H         8.8749150947      -39.1192340102       12.2908544845
  O         1.1568291614        3.6548025023       22.9257992868
  H         0.3750398898        3.4674996446       23.4482502589
  H         1.8691128871        3.3679460092       23.6049677306
  O        -9.6278860578      -34.7886121221       20.1461596609
  H        -8.6288265626      -34.6897526483       19.9978012160
  H        -9.6532985662      -35.2031439777       21.0789046116
  O       -43.2385556801       -4.1541279566       33.2931347742
  H       -42.2665176315       -4.0131962682       33.2215976128
  H       -43.6595953558       -3.2276167990       33.2658894503
  O        -1.2252549300      -55.2827149341       24.1280969328
  H        -1.3032673961      -54.6184403248       24.8686404958
  H        -1.9105744160      -54.9364034846       23.5010366690
  O        13.0225612046      -15.8726745596       22.0992674074
  H        12.3700748490      -16.4862193484       22.6354190773
  H        13.3122717966      -16.4954618738       21.3305813718
  O         5.4919639727       25.1825473799       29.1463904004
  H        23.1424172286       25.7679567187       29.1074642028
  H         5.4435440503       24.8409856259       30.0276766636
  O       -48.6228345504      -27.2511531208       15.6577199446
  H       -47.8625464437      -26.5313045176       15.5122286469
  H       -49.0961404117      -26.9667213198       16.4493203297
  O         1.5352777790        0.5449239529       33.2980558576
  H         0.7558451355       -0.0364347133       32.9273478127
  H         1.2889494560        1.5062299299       33.0416178338
  O       -50.2076783998      -44.7446620828       20.9502098153
  H       -50.9111014966      -44.6273262370       21.6182331883
  H       -50.1572866534      -43.9880520607       20.3256926620
  O        61.0354273592      -31.7729195090       12.6344134395
  H        61.4827579379      -30.8644067293       12.4589446072
  H        60.3168619811      -31.5457665437       13.2697979863
  O        30.5982347956      -24.7016655840       15.6218517153
  H        30.5403363294      -25.4340352789       16.3199282788
  H        31.5756691837      -24.5362262679       15.5326960154
  O        38.0058378243       -7.6689483255       14.9229605545
  H        37.7834230907       -8.4515100083       15.4306307570
  H        37.3170274740       -6.9137452880       15.0076809273
  O       -41.6502310562      -21.4300017880       33.5565798718
  H       -40.6925087994      -21.2575214058       33.1930616682
  H       -42.1353634530      -20.6280409157       33.1730778175
  O       -36.9015323727      -30.5384380818       24.5559216009
  H       -19.7390719707      -29.7554081102       25.0505887675
  H       -21.0022098443      -30.6167912209       24.5805598777
  O        54.1075007383      -18.3049630862       16.1196932282
  H        54.0547459290      -17.3400696008       16.0928086192
  H        54.2642152351      -18.5033428144       15.1690898331
  O         5.9367290418      -71.9116957971       26.0911092298
  H         6.3584378683      -71.3378058371       25.3750965439
  H         4.9232569151      -71.6673486393       25.9317011882
  O       -31.9728187100       10.2797980716       27.8394597983
  H       -32.2552042542        9.4393506442       27.3880117173
  H       -30.9620054030       10.0976149426       27.9169573046
  O        54.1757460919        9.5590903481       32.1080904984
  H        54.9837935325       10.0690166102       32.4353801285
  H        54.3030428275        8.5920388044       32.2690252167
  O        10.3809562559      -71.4072385000       25.3898491235
  H         9.7024028612      -71.8395295736       24.8794516962
  H         9.9097457889      -70.9494192147       26.1536975385
  O       -17.7580390011       23.7791999493       29.6928427453
  H       -17.9283161586       24.6311273433       29.2534628840
  H       -18.4320804532       23.1442413107       29.4428710480
  O        55.2581564612       35.2779521765       15.6484082443
  H        54.5442297289       35.4700132607       14.9875587049
  H        55.5013574035       34.3209610848       15.3737280868
  O       -22.7037808008      -41.4738485943       11.6262395740
  H       -22.6289727881      -41.8446532421       10.7446200918
  H       -22.9850728525      -42.2705157405       12.0862504500
  O         2.7290147475      -23.2125321066       17.5408821359
  H         2.1008826674      -22.6857537364       16.9409843769
  H         3.5628506236      -23.1994019728       16.9866622143
  O       -47.2296945919        6.8311776879        8.8973370338
  H       -47.3656588268        5.8964007199        8.9228146141
  H       -46.2902871482        7.0689805154        8.9214321810
  O         6.3659551182      -41.6465103297       32.6639797920
  H         6.4952379934      -41.6060469426       33.6608732288
  H         5.9786466266      -40.7421422969       32.4241669703
  O        35.4267282420       -9.1496207163       21.4982237085
  H        26.1507242816        6.0301289460       21.3782655414
  H        35.7008875452       -8.9573513258       22.4702753038
  O       -42.3821053387      -24.4922731257        8.2140810117
  H       -42.3137919868      -23.5988295874        8.6068899604
  H       -43.3239812467      -24.9572570914        8.3682990100
  O         6.1708633250      -32.1983969899       20.4768993249
  H         6.1350834105      -33.2345972105       20.2897334217
  H         7.1129594552      -32.1814605898       20.8195806007
  O        27.3209090395        0.2745539501       27.2705149570
  H        26.7617072443       -0.4971578479       27.0243833673
  H        26.7615092626        0.9585238271       27.6593290812
  O       -61.9362322896       -9.7086637700       10.9382987371
  H       -62.7582241598       -9.2593887958       11.2386937735
  H       -61.5604237760      -10.3029126788       11.6274275367
  O        32.1120100025      -40.6049618207       18.4110107459
  H        31.5271772458      -40.3367828482       19.1746272045
  H        32.5090287846      -39.7701297602       18.1797054147
  O        31.7318408937        7.2799945027       18.1933266381
  H        48.7756694813        8.1058546782       18.7166138605
  H        31.8695009013        7.5639352137       17.2608222547
  O        26.9930704434       67.8276375942       28.0409841011
  H        27.8676790087       67.5551730438       27.7193331852
  H        43.6747178243       67.1876381956       28.7763151131
  O       -32.6456738618      -11.8557746760       21.6822646954
  H       -32.5342458890      -10.8804824033       21.5313496605
  H       -32.7786170771      -12.3757718726       20.8117277998
  O       -16.5187821751      -31.0079176717       13.2864495218
  H       -16.2767785523      -31.4664678005       14.1214655190
  H       -16.9134126205      -31.6951254128       12.6843738651
  O        -8.5634014584       47.0309743729       29.3562332476
  H        -8.7318579058       47.9947854884       29.5364482808
  H        -8.1576180160       46.7437942630       30.2124097538
  O        33.4223470148       35.0908890337       11.1274891272
  H        25.3976978622       50.1288073416       10.3383971795
  H        32.5153918172       34.8501690263       11.0494290100
  O        48.2389103443       -4.7719126129       20.1032652643
  H        48.0965246721       -4.8160442333       19.0937449350
  H        49.2029419453       -5.0044360596       20.2887098696
  O        29.4434748330      -18.7852062222       32.4004183311
  H        29.6637356835      -18.3455415647       33.2695754455
  H        28.6960512631      -18.2169189285       32.0962446712
  O        42.7246650369      -38.0979412912       21.4935121205
  H        43.5668849226      -37.8354457327       21.0561893794
  H        42.9812448265      -38.7878852127       22.1260407607
  O        -9.4543326850        2.1244875689       23.3456232723
  H       -10.3117461281        2.6011287095       23.0139703464
  H        -8.7067790977        2.1515298013       22.6662231110
  O       -18.4790808072      -18.8879838259       13.8249062379
  H       -17.9673520117      -19.2772533465       13.0997168181
  H       -19.4559253007      -18.7283753634       13.4706080674
  O        14.3991010673      -39.9755240471        9.0929594134
  H        14.3865226993      -41.0119160445        9.2974330346
  H        13.7812294592      -39.8923124342        8.2948271864
  O       -18.5904216688       11.7987001035        8.1660458917
  H       -17.7326504239       12.0772622399        8.5471228460
  H       -18.7048589671       10.8392815803        8.4795886343
  O        18.8724097603        6.6541222893       24.5747782465
  H        18.5977198061        6.3628275910       23.6907434580
  H        18.9977804424        7.6847891150       24.4475092561
  O        23.5664679533       28.2932884297       18.5419268939
  H        22.6331503743       28.4099317096       18.6653599352
  H        32.3186808199       42.3337194301       19.2880949345
  O         0.7687463741      -16.6673882632       30.9265374527
  H         1.5724802744      -16.2784439076       30.4794098131
  H         0.9335679929      -17.6728970628       30.9144359605
  O         7.8008439695      -13.5595153066       16.9098709872
  H         8.0610795814      -13.9516998339       17.8634692403
  H         7.4903819760      -12.7099664161       17.3502762533
  O         8.7524166183      -21.4591339348       26.0232159292
  H         8.1428006050      -22.1320728171       26.3756317874
  H         9.1377914335      -21.0522126390       26.8172507045
  O       -31.2224115323        0.6087121994       21.5849228970
  H       -48.9085614866        0.1779112356       21.7817571224
  H       -30.4371455297       -0.0096824766       21.7627842920
  O        -1.9642438472      -27.9134194681       28.5133753988
  H        -2.2141361885      -28.0600961021       27.5761710867
  H        -1.3776314588      -27.1155883123       28.5593228272
  O        10.4246818226      -24.3305369818       14.7828457010
  H         1.9681387439       -9.9179194862       15.7273450214
  H        10.5672936391      -25.1568937965       14.2937659472
  O       -17.7968799251       43.0669267967       11.8559958994
  H        -0.5689755026       42.5559096331       12.6066432353
  H       -17.5790915317       43.9379923977       12.1084428785
  O         6.9919879715      -23.5466680037       26.6835493881
  H         6.8344282037      -23.9430958381       27.5074048366
  H         7.2548146467      -24.3404847883       26.1173419054
  O        20.8201904093      -49.9350006816       21.5138537104
  H        19.9881082049      -49.4495456431       21.0542829166
  H        21.5851173964      -49.4076484496       21.0933851814
  O       -22.0212496655       -0.8343634564       29.5205788601
  H       -22.3209545493       -0.4679069688       28.6729189057
  H       -21.6666499860       -0.1177804717       30.0600550573
  O         3.7357423355      -21.6058992272       11.8545180896
  H         3.3491418417      -21.7288367891       10.9461886300
  H         3.1265482120      -21.9555797253       12.5138554978
  O        -7.8236568176        1.6119623422       19.2637213038
  H        -8.6272752000        2.0669219191       18.9694040168
  H        -7.1964923209        1.7612408398       18.5230046619
  O       -16.9530357976       -7.3286223239        9.4812349670
  H       -17.8930572508       -7.1466964023        9.3226654570
  H       -16.9237559977       -7.6803567326       10.3963490242
  O       -35.5018425528      -17.4866865199       25.5689332196
  H       -35.2637891940      -16.8192728579       24.8897673242
  H       -36.4596617294      -17.7847453794       25.2959277088
  O         0.6188810697       26.9353807878       10.5149231046
  H         1.4928601085       26.9038706494       10.0927430345
  H        -0.0355615918       26.8073620401        9.7792615431
  O       -26.5759769512       22.5991315872       22.7330125133
  H       -27.5048830800       22.2044101762       22.8576424941
  H       -26.1136534965       21.7068800138       22.7596308071
  O        20.3800403437      -12.2156094305       22.9680370902
  H        21.0151604597      -12.7463392994       22.5353118057
  H        19.5415916717      -12.2394283780       22.5060494229
  O       -15.0535660135       -4.1641664828       18.4194767903
  H       -14.3942373755       -3.3881223014       18.6028026674
  H       -15.4435037357       -3.9675832689       17.4974862017
  O        29.6920023447      -18.6595449286       10.5703188422
  H        29.4023813332      -17.9615315529        9.9977491986
  H        28.8989754472      -19.2716354717       10.6341562547
  O       -71.9408435519      -26.6239443797       29.5349370829
  H       -71.4336204407      -27.1783229953       28.9174122982
  H       -72.4237542114      -25.8123664956       29.0429514735
  O        11.3028852099      -12.7466191218       19.2013235912
  H        10.9914425923      -13.3929964852       19.9452958361
  H        10.4590850606      -12.1486345066       19.1899465298
  O       -34.6201383516       34.2911208830       19.2900366236
  H       -35.0333966396       35.1473198263       18.9514733440
  H       -34.0439126983       34.4729134864       20.1054458088
  O       -30.7617505665       -2.1745162393        9.0151306290
  H       -30.9102053238       -2.3317878456        8.0851625034
  H       -30.8662064829       -1.1452156481        9.0829520714
  O        16.2979390452      -11.7072414179       25.7676304597
  H        24.6675591329      -26.5659025150       24.8044355190
  H        -1.2937707823      -12.2349333917       26.1534811216
  O        15.0190370658        9.4515477405        9.4397492356
  H        14.0803947749        9.6623809126        9.7354965733
  H        14.9680824514        8.6662846650        8.8553060257
  O        -5.6846568668       13.4744343495       26.6178533979
  H        -6.6607828652       13.4685788317       26.5448898122
  H        -5.4197245943       14.4197900082       26.5411347600
  O         8.1720784169      -43.5302966570       24.4625231300
  H         8.1254456772      -44.2209444888       25.2014607201
  H         8.2424449989      -43.9673974590       23.5999149195
  O       -11.5719681505      -10.3647511943       31.1601623225
  H       -10.8213890413       -9.9477981801       30.6668725772
  H       -12.0069388884      -10.9496854004       30.4807750762
  O        20.1994017068      -12.4862710031       25.7630787483
  H        19.8676312691      -12.6267333092       24.8566718996
  H        19.7283879749      -13.0996636032       26.3183920774
  O        36.0406950698      -39.0625110402       28.5722418476
  H        35.8973466966      -38.2032395999       29.0454933087
  H        36.3732926804      -38.7452622273       27.6596818095
  O        30.9165088741      -29.8948003957        8.2798466080
  H        29.9546215373      -29.9291904660        8.4987172815
  H        31.4467453117      -29.1841188450        8.7859076669
  O       -57.8238710721        9.5804709393        8.6796230422
  H       -57.3746209579        9.2000694373        7.8570876237
  H       -58.2923278243        8.7442217973        9.0840260255
  O        46.0414109483        8.4539772736       24.9932624541
  H        45.3499976513        7.8779395295       25.3119896229
  H        45.8367505189        9.3813879190       25.0655890125
  O        31.0032088976      -12.7884136731       16.6462180142
  H        31.5623835680      -12.2549878625       17.3252014759
  H        30.5212926585      -13.4617091324       17.1573312152
  O         2.0866129646      -41.5596574739       17.1599420693
  H         1.7826328736      -40.5086495934       17.1525161124
  H         1.8721543320      -42.0966811763       16.3305016222
  O         1.1040785988      -19.4963307622       30.8416427689
  H         1.0758223083      -19.4952882507       29.8455440348
  H         2.0913668721      -19.5900606339       30.9502544629
  O        -0.7816895885       16.3234746685       12.6280658625
  H        -0.0402969105       16.8850556356       12.3026293075
  H        -1.6618955979       16.7995068253       12.3316115816
  O         6.5019973908      -37.1868568808       27.8900683522
  H         7.3388359098      -36.7946791578       27.6283233342
  H         5.8186241805      -36.4438533663       27.8120092723
  O         6.1771837904       -7.7352462155        8.7632743938
  H         5.2060643331       -7.6803816090        8.9781855372
  H         6.2382222852       -8.2777956254        7.8965989655
  O         3.3912251759       50.5188240643        9.2604394446
  H         3.2232946035       51.3636213251        9.8599638870
  H         3.0795605878       50.8331245994        8.3467770461
  O        51.7277291277       26.2890037828       15.8198308564
  H        52.3364520805       27.0644100999       15.8130236804
  H        50.8508812097       26.5930338334       16.1869592680
  O        38.4063216318       43.4461881318       18.4910253261
  H        37.6494401485       43.0580084464       18.0186712755
  H        38.5502315685       44.3126717363       18.0125543233
  O         9.9654760699       13.3502110882       30.4601540291
  H        17.5105942946       -1.2535922721       30.0041933787
  H        10.6083999860       12.8184150643       29.8981577864
  O        29.7996331704       -2.7044044545       20.2901618505
  H        30.4852957984       -3.3990423040       20.0737870177
  H        30.3194986121       -1.9462189982       20.0126012095
  O        38.8227704648       48.4006253554       22.6298550528
  H        37.9530927366       47.8584029356       22.6472494863
  H        39.0798849382       48.2034678446       21.6885573119
  O        29.8391261881      -15.7126524204       13.8348673558
  H        29.7040823313      -15.3335893718       12.9321987312
  H        30.6470410407      -15.2176636753       14.1759597054
  O        15.7231316915       -2.3230184090       17.2117818675
  H        15.0934377452       -1.8142301880       16.5644664875
  H        15.1702509337       -3.1552388744       17.2482471119
  O        -3.3000340020      -62.3360517844        9.2593380079
  H        -4.2712393823      -62.2621273761        9.1970070430
  H        -3.0639088969      -62.2766478172       10.1997028907
  O        16.2500010741      -32.7588326716       27.9053854045
  H        17.1136701981      -33.1664677058       27.7441927951
  H        15.6352813558      -32.8577241302       27.0532695496
  O       -34.2409050390        4.8658103065       15.4556240928
  H       -33.6848884741        4.6812686266       14.6345121688
  H       -33.8473620008        4.3101416157       16.0938365315
  O        25.7394030054       17.4202691311       31.9953966657
  H        24.8141424911       17.0924766344       32.1579618602
  H        25.8204002252       18.2704307876       32.5433917293
  O        12.5236357608      -14.6009692969       17.9920593853
  H        12.0001250362      -13.7555207699       18.1855085546
  H        12.0312706553      -15.1510162320       17.2769212503
  O        17.9886824481      -25.2798159014       18.0375057230
  H        18.5139339687      -24.6244677788       17.6294946735
  H        25.6064170913      -39.4496424326       18.4023078669
  O       -20.9985080919        0.4605828601       32.1152338099
  H       -20.0940990780        0.9189208780       32.3369626459
  H       -21.7539692170        1.1591753649       32.3485239799
  O        -9.5881717625       15.8293476985       12.3416409246
  H       -10.2641915769       15.0592445571       12.2469996425
  H        -8.7337321147       15.5909118239       12.8192116093
  O        26.1564485843      -55.9728327057       28.1802565284
  H        26.6919275713      -55.1050384018       28.3631711747
  H        25.7608352654      -55.9720423427       27.2262407912
  O        34.4918767638        7.1904140000        8.8635982141
  H        34.2695750190        7.9716747787        8.3562714473
  H        43.9622188288       -7.4436865217        8.9325153855
  O        35.1502255192       29.8517151756       13.2049450955
  H        34.8641623848       28.8429194677       13.2544319332
  H        35.2065145984       30.2107020360       14.1718035771
  O        25.3741307225      -15.1993737468       18.9388461072
  H        25.0678513154      -15.2451691303       19.8564097451
  H        25.0967202778      -15.9933988425       18.4389659073
  O       -24.1711482189      -34.1542564837       17.5877355962
  H       -25.0013553026      -33.6066037823       17.6740710252
  H       -23.5888648440      -33.5896175549       17.0933067482
  O       -12.3134211690      -23.9537161532       24.7463230886
  H       -12.4429509186      -24.4047028170       25.6334825785
  H         3.6916192296      -23.4470931037       24.6516024357
  O         4.0306855471      -32.4877579790       24.9069487143
  H         3.6199708003      -31.9236498091       25.5942899716
  H         3.3257539049      -32.6859020283       24.1912246260
  O       -16.4860216704        7.2602993627       31.7134208255
  H       -16.1948729930        8.0565920783       31.2746721948
  H       -17.3725472273        7.4377608539       32.1555520082
  O        63.1636248940       -9.3069286598       32.4053597335
  H        63.5935041336      -10.1181661033       32.0266597117
  H        63.7871977517       -8.4214816791       32.2519464023
  O        12.6917581634      -40.1499254822       27.1529680150